22
Lattice="100.000000 0.000000 0.000000 0.000000 100.000000 0.000000 0.000000 0.000000 100.000000" energy=-11551.29160023 Properties=species:S:1:pos:R:3:forces:R:3
C -0.03867 1.80897 1.00242 -1.13306 0.77546 -1.39825
C -0.88496 0.75844 1.62927 -0.76159 0.10674 0.31661
C -0.01152 -0.24543 2.00838 0.71404 -0.94149 0.03739
H -1.78963 0.98010 2.20539 0.05458 0.07647 -0.04660
C 1.20128 -0.11665 1.29558 -0.40925 0.22163 0.07915
H -0.25745 -1.10690 2.61557 -0.13138 -0.20727 0.25935
C 1.10627 1.02376 0.53047 0.94105 -0.29141 -0.42037
H 2.00488 -0.84361 1.25790 0.12328 -0.16593 0.06802
H 1.88887 1.39492 -0.13720 -0.07033 0.05215 0.04915
H 0.28250 2.51486 1.76077 0.26269 0.46191 0.59219
H -0.55985 2.40003 0.21238 0.31452 -0.16085 0.38023
C -0.69780 -0.03425 -1.01398 -0.00175 -0.00965 0.17831
C -1.71387 0.04836 -0.08450 -0.23820 -0.71844 0.73045
H -2.45301 0.83359 -0.15740 -0.26115 0.37938 -0.08029
H -2.09375 -0.90797 0.31264 0.15073 0.28377 -0.07795
C 0.03338 -1.26828 -1.16200 0.31928 -0.37538 -0.04873
H -0.51401 0.76791 -1.69316 0.16814 0.70149 -0.67393
O -0.10008 -2.18772 -0.37301 -0.24053 -0.40914 0.44647
C 0.97462 -1.42059 -2.32012 0.77842 1.05037 -0.11000
H 1.37688 -0.43184 -2.66238 -0.17748 -0.61910 0.14095
H 0.44607 -1.86659 -3.15259 -0.40828 -0.23477 -0.56591
H 1.79983 -2.10112 -2.07444 0.00484 0.02720 0.14060
22
Lattice="100.000000 0.000000 0.000000 0.000000 100.000000 0.000000 0.000000 0.000000 100.000000" energy=-11551.15600615 Properties=species:S:1:pos:R:3:forces:R:3
C -0.04219 1.80664 1.01313 -1.20836 0.95818 -1.89065
C -0.88166 0.75411 1.62209 -1.65971 0.58438 0.33272
C -0.01766 -0.23890 1.98695 1.06238 -1.80226 0.76512
H -1.79228 0.96317 2.19991 0.16972 0.08271 -0.08225
C 1.19939 -0.10924 1.29324 0.18478 -0.44427 0.11991
H -0.26259 -1.09494 2.61072 -0.09555 -0.10727 0.10915
C 1.09616 1.03105 0.53619 1.79864 -0.09866 -1.21053
H 2.00875 -0.85895 1.27258 -0.34108 0.35405 0.00452
H 1.88509 1.41421 -0.15263 -0.55196 -0.17962 0.52216
H 0.29400 2.51381 1.74838 0.31483 0.66298 0.95537
H -0.54278 2.40683 0.21834 0.18540 -0.17840 0.36074
C -0.68934 -0.02655 -1.01447 -0.75348 -1.15559 1.57028
C -1.71526 0.03941 -0.07360 0.25571 0.07107 0.11771
H -2.45007 0.83635 -0.14219 -0.18820 0.19031 -0.07541
H -2.09326 -0.90840 0.30817 0.01093 -0.10564 0.10511
C 0.02479 -1.27305 -1.14914 1.08758 0.37326 -1.52878
H -0.52287 0.74902 -1.68809 0.37176 1.52442 -1.39189
O -0.08744 -2.20185 -0.38684 -0.48431 -0.86478 1.05992
C 0.97878 -1.40572 -2.34190 0.26569 0.37967 1.35498
H 1.37682 -0.43654 -2.65587 0.07856 0.09811 -0.20127
H 0.44386 -1.87018 -3.14203 -0.59304 -0.37912 -1.01699
H 1.78974 -2.09027 -2.06294 0.08557 0.04050 0.01636
22
Lattice="100.000000 0.000000 0.000000 0.000000 100.000000 0.000000 0.000000 0.000000 100.000000" energy=-11551.05653798 Properties=species:S:1:pos:R:3:forces:R:3
C -0.04303 1.80423 1.02658 -1.41912 0.71499 -3.02930
C -0.86784 0.74670 1.62001 -3.06909 1.27725 0.91727
C -0.00919 -0.23186 1.99235 1.06354 -1.98120 0.62812
H -1.79843 0.97740 2.20861 0.82905 -0.18891 -0.48389
C 1.19201 -0.11354 1.28502 0.70981 -0.54339 0.18016
H -0.27181 -1.07874 2.59582 -0.13511 -0.55385 0.46461
C 1.08702 1.03091 0.53575 1.89229 -0.22467 -1.11154
H 2.00702 -0.86619 1.28432 -0.47650 0.49985 -0.09528
H 1.87540 1.42278 -0.13337 -0.34782 -0.10246 0.29542
H 0.29865 2.51057 1.72834 0.54478 1.20563 1.58593
H -0.53890 2.39803 0.21163 0.22060 -0.27998 0.59316
C -0.69177 -0.02628 -1.01243 -0.23838 -0.68284 0.65341
C -1.70908 0.03782 -0.07564 0.25644 0.00922 0.27538
H -2.43725 0.82266 -0.14461 -0.49952 0.61349 -0.08665
H -2.10431 -0.89982 0.29587 0.02667 -0.34228 0.22580
C 0.02036 -1.27810 -1.15336 1.08905 0.37965 -1.08573
H -0.51655 0.75279 -1.71475 0.16754 0.80829 -0.70040
O -0.06608 -2.20399 -0.38040 -0.62277 -0.70088 0.97730
C 0.97190 -1.41195 -2.32861 0.02903 0.87836 0.40698
H 1.39022 -0.43992 -2.64942 -0.14609 -0.20276 -0.07974
H 0.43589 -1.87494 -3.14514 -0.31764 -0.19928 -0.67421
H 1.77578 -2.07855 -2.04658 0.43864 -0.37537 0.14214
22
Lattice="100.000000 0.000000 0.000000 0.000000 100.000000 0.000000 0.000000 0.000000 100.000000" energy=-11550.93876691 Properties=species:S:1:pos:R:3:forces:R:3
C -0.03508 1.79617 1.02447 -1.81786 0.91540 -3.50955
C -0.87335 0.73802 1.60406 -3.67253 2.27372 0.57863
C -0.02512 -0.21709 1.98440 1.90986 -3.86538 1.44070
H -1.80014 0.96907 2.19650 0.79411 -0.14119 -0.48826
C 1.19146 -0.11195 1.28714 0.68466 -0.57934 0.31623
H -0.29201 -1.08708 2.59878 0.06981 0.18696 -0.04678
C 1.10363 1.03881 0.54928 1.63069 -0.61413 -1.08829
H 2.01117 -0.86475 1.29067 -0.60652 0.54079 -0.06167
H 1.87528 1.41599 -0.13264 -0.10631 0.03952 0.17598
H 0.31135 2.49715 1.71433 0.57492 1.52758 1.94008
H -0.52581 2.39693 0.19819 0.33588 -0.40941 0.78207
C -0.70037 -0.02450 -1.01034 -0.26913 -0.74444 0.60519
C -1.71068 0.04866 -0.06165 0.15727 0.46668 -0.04378
H -2.45309 0.83238 -0.15381 -0.21305 0.35350 0.00849
H -2.10664 -0.88684 0.29502 -0.08611 -0.55603 0.33066
C 0.00621 -1.27541 -1.15192 1.51824 0.16533 -0.91975
H -0.49576 0.75506 -1.70462 0.09096 0.81575 -0.68482
O -0.06334 -2.20171 -0.36885 -0.67152 -0.37991 0.62684
C 0.98257 -1.40142 -2.32854 -0.52099 -0.02936 0.40325
H 1.38661 -0.43572 -2.66325 -0.03528 -0.05318 -0.11475
H 0.43161 -1.89652 -3.14123 0.05946 0.11092 -0.24963
H 1.78150 -2.08526 -2.02598 0.16888 -0.00897 0.00112
22
Lattice="100.000000 0.000000 0.000000 0.000000 100.000000 0.000000 0.000000 0.000000 100.000000" energy=-11550.90369563 Properties=species:S:1:pos:R:3:forces:R:3
C -0.02259 1.79100 1.02967 -2.69947 1.49310 -3.71019
C -0.88473 0.74170 1.59688 -3.03270 1.27396 0.85247
C -0.01460 -0.22628 1.98863 1.06323 -2.65234 0.81414
H -1.81487 0.97305 2.20527 1.08942 -0.16451 -0.64317
C 1.19167 -0.12473 1.28748 0.40804 0.08013 0.24264
H -0.28366 -1.08763 2.58610 -0.06122 -0.25551 0.29699
C 1.09686 1.03761 0.55546 2.37199 -0.98624 -1.54412
H 2.00949 -0.85732 1.29373 -0.27757 0.18501 -0.09006
H 1.86751 1.41577 -0.14455 -0.33163 -0.08530 0.43573
H 0.31192 2.50980 1.70579 0.59464 1.51674 2.00600
H -0.52218 2.40604 0.19137 0.57415 -0.68974 1.08245
C -0.70649 -0.02258 -1.02623 -0.50935 -0.62782 1.12537
C -1.70850 0.04310 -0.04326 0.42544 0.93553 -0.31044
H -2.44837 0.83832 -0.14689 -0.13508 0.06598 0.06270
H -2.09923 -0.90183 0.29892 -0.11087 -0.47006 0.29549
C -0.00073 -1.26785 -1.15292 1.86977 0.21249 -1.21067
H -0.48967 0.75933 -1.71752 -0.01671 0.76274 -0.60899
O -0.05761 -2.18117 -0.36000 -0.80106 -0.74053 0.98331
C 0.98479 -1.40617 -2.32235 -1.02559 -0.15998 -0.00899
H 1.38938 -0.44080 -2.64041 0.01781 0.07716 -0.28002
H 0.41895 -1.90744 -3.14058 0.30785 0.39131 0.02500
H 1.78265 -2.09192 -2.04458 0.27652 -0.14470 0.18722
22
Lattice="100.000000 0.000000 0.000000 0.000000 100.000000 0.000000 0.000000 0.000000 100.000000" energy=-11550.75445612 Properties=species:S:1:pos:R:3:forces:R:3
C -0.00032 1.79218 1.02841 -4.06796 1.88416 -3.29735
C -0.88848 0.73976 1.59138 -2.59240 1.30338 1.01924
C -0.01905 -0.23266 1.98405 0.94085 -2.41888 0.87770
H -1.81629 0.94817 2.21742 1.13361 -0.01760 -0.78271
C 1.19392 -0.11618 1.29897 0.60789 -0.12106 -0.06762
H -0.29820 -1.08851 2.59179 0.02917 -0.17533 0.17137
C 1.09012 1.04668 0.54690 3.10423 -2.03393 -1.35897
H 2.00862 -0.87191 1.31296 -0.51959 0.55825 -0.14664
H 1.85790 1.40966 -0.15566 -0.21215 0.00650 0.33763
H 0.31798 2.52419 1.70194 0.57490 1.39556 1.95918
H -0.52162 2.40922 0.19825 0.68820 -0.71555 1.07678
C -0.70930 -0.01664 -1.02120 -0.03414 -1.15636 0.68103
C -1.70917 0.03721 -0.05767 0.19789 1.24851 0.07826
H -2.43515 0.83996 -0.14966 -0.28951 0.16305 0.04188
H -2.10118 -0.89598 0.29865 -0.16803 -0.65485 0.30359
C -0.00997 -1.27539 -1.15887 1.99377 1.58923 -1.85756
H -0.47837 0.74755 -1.71667 -0.03001 1.04966 -0.76641
O -0.06633 -2.16017 -0.35840 -0.79810 -1.88995 1.68605
C 0.99233 -1.39804 -2.32814 -1.44889 -0.60237 -0.22381
H 1.39605 -0.42418 -2.63618 -0.04043 -0.10227 -0.25508
H 0.41759 -1.92119 -3.15673 0.66718 0.73921 0.42920
H 1.77891 -2.09373 -2.03152 0.26237 -0.03267 0.09856
22
Lattice="100.000000 0.000000 0.000000 0.000000 100.000000 0.000000 0.000000 0.000000 100.000000" energy=-11550.68984235 Properties=species:S:1:pos:R:3:forces:R:3
C 0.00706 1.78888 1.01266 -3.81258 2.77916 -2.18729
C -0.88551 0.74528 1.58320 -2.88938 1.12174 1.35766
C -0.02094 -0.23382 1.98038 0.59300 -2.29719 0.88623
H -1.82653 0.94853 2.22974 1.55644 -0.01674 -1.12591
C 1.17854 -0.13049 1.29101 1.16754 0.42534 -0.42088
H -0.30045 -1.08411 2.59348 -0.00306 -0.20176 0.18702
C 1.10243 1.05020 0.54005 2.85304 -2.58528 -0.93290
H 1.99702 -0.87900 1.30878 -0.50209 0.46820 -0.14561
H 1.87531 1.40702 -0.15303 -0.12702 0.03604 0.24681
H 0.30414 2.54619 1.71409 0.28134 0.52980 1.11664
H -0.52246 2.39977 0.19653 0.66477 -0.58709 0.86591
C -0.70891 -0.01924 -1.01860 0.00617 -0.57829 0.31514
C -1.69760 0.03764 -0.06124 -0.87627 1.03313 0.76855
H -2.42825 0.85419 -0.13330 -0.02831 -0.16944 -0.01872
H -2.10664 -0.90945 0.29801 0.10890 -0.02940 0.08484
C -0.02287 -1.26161 -1.15258 2.80041 1.31102 -2.93107
H -0.48174 0.73539 -1.72270 -0.01728 1.13116 -0.80172
O -0.06106 -2.14118 -0.35992 -0.92543 -2.61741 2.43666
C 0.99679 -1.40475 -2.34012 -1.43639 -0.81640 0.48722
H 1.38892 -0.42675 -2.62434 0.14421 0.07459 -0.40973
H 0.41974 -1.91644 -3.16775 0.66522 0.64329 0.36909
H 1.79301 -2.10623 -2.01436 -0.22465 0.36263 -0.14241
22
Lattice="100.000000 0.000000 0.000000 0.000000 100.000000 0.000000 0.000000 0.000000 100.000000" energy=-11550.68312157 Properties=species:S:1:pos:R:3:forces:R:3
C 0.00063 1.80136 1.01032 -3.37976 2.10821 -1.91584
C -0.88502 0.73589 1.56525 -3.11147 1.19587 1.67149
C -0.01512 -0.23520 1.98343 0.77175 -2.09746 0.48009
H -1.82996 0.93423 2.22487 1.69583 -0.02824 -1.23716
C 1.18339 -0.14304 1.28490 0.53809 1.16581 -0.32603
H -0.29759 -1.08673 2.58044 -0.09338 -0.39207 0.38138
C 1.09939 1.05160 0.54445 2.75665 -2.69570 -0.97373
H 1.99375 -0.88076 1.29847 -0.17559 0.18183 -0.14276
H 1.86753 1.40863 -0.14945 -0.03544 0.06763 0.17321
H 0.31169 2.53222 1.73652 0.16732 0.51744 1.00275
H -0.51799 2.39877 0.19122 0.57928 -0.38658 0.80238
C -0.72062 -0.00792 -1.00240 1.25055 -1.18151 -0.78096
C -1.69472 0.04209 -0.04974 -0.76623 1.13004 1.14765
H -2.39771 0.86209 -0.12700 -0.50248 0.14607 -0.00331
H -2.09792 -0.90283 0.28952 -0.10616 -0.31724 0.25533
C -0.02487 -1.27307 -1.15546 2.31250 2.16636 -2.70158
H -0.48489 0.74301 -1.72303 -0.14332 0.86835 -0.49475
O -0.06635 -2.14526 -0.35433 -0.81576 -2.51526 2.14192
C 0.99668 -1.39658 -2.35635 -1.57584 -1.32165 1.06179
H 1.38706 -0.41634 -2.61528 0.18315 0.19401 -0.49707
H 0.40848 -1.91550 -3.17168 0.75238 0.70076 0.30308
H 1.78415 -2.10666 -2.00466 -0.30442 0.50989 -0.34327
22
Lattice="100.000000 0.000000 0.000000 0.000000 100.000000 0.000000 0.000000 0.000000 100.000000" energy=-11550.66498256 Properties=species:S:1:pos:R:3:forces:R:3
C -0.01374 1.79373 1.00200 -2.61715 3.07393 -1.44258
C -0.88378 0.75339 1.56476 -3.19107 -0.65411 2.47424
C -0.01917 -0.25753 2.00368 0.66670 0.16102 -0.93023
H -1.84065 0.92436 2.23122 1.85313 0.15736 -1.37241
C 1.17466 -0.14062 1.29578 0.90711 0.83043 -0.47280
H -0.28335 -1.09491 2.58524 -0.44127 -1.11566 0.91900
C 1.08845 1.05311 0.54083 3.12825 -2.95166 -1.00544
H 2.00798 -0.87325 1.28591 -0.53469 0.43776 -0.05984
H 1.87556 1.40431 -0.15580 -0.39975 -0.03558 0.45396
H 0.30978 2.53574 1.73855 0.00799 0.09118 0.59230
H -0.49672 2.41518 0.18728 0.31227 -0.43513 0.71443
C -0.72115 -0.01459 -0.99859 1.25914 -0.49640 -1.38160
C -1.70025 0.03026 -0.04726 -0.37858 2.08631 0.88176
H -2.38856 0.86780 -0.11892 -0.47261 -0.01470 -0.02644
H -2.09831 -0.89305 0.28872 -0.43738 -1.05324 0.53723
C -0.03316 -1.28085 -1.16778 2.55585 1.56322 -1.87021
H -0.49992 0.76956 -1.72632 -0.27550 0.11175 0.10567
O -0.05924 -2.15066 -0.34704 -0.82686 -1.79631 1.38738
C 0.99846 -1.40048 -2.36312 -1.92452 -1.40460 1.18100
H 1.39085 -0.42800 -2.60876 0.23637 0.53509 -0.61332
H 0.40457 -1.91504 -3.17031 0.75209 0.65023 0.13817
H 1.78770 -2.09847 -2.02006 -0.17987 0.27650 -0.20925
22
Lattice="100.000000 0.000000 0.000000 0.000000 100.000000 0.000000 0.000000 0.000000 100.000000" energy=-11550.42616149 Properties=species:S:1:pos:R:3:forces:R:3
C -0.00389 1.77685 1.00619 -3.39795 4.45323 -1.84865
C -0.87602 0.74880 1.54944 -3.84925 -0.79199 2.98214
C -0.03005 -0.26113 2.00523 1.43998 0.31110 -1.55912
H -1.82961 0.92604 2.21877 1.80538 0.18321 -1.38865
C 1.16829 -0.13666 1.27311 0.62967 0.02524 0.68812
H -0.27948 -1.09941 2.58150 -0.53886 -1.29707 1.05404
C 1.08913 1.05351 0.55617 4.09031 -2.68016 -2.06437
H 2.00413 -0.86233 1.30528 -0.45545 0.39270 -0.24578
H 1.88294 1.40987 -0.14755 -0.62895 -0.12319 0.68624
H 0.30731 2.54174 1.72575 0.00188 -0.00545 0.68675
H -0.49536 2.43216 0.18498 0.58240 -0.90305 1.05798
C -0.71664 -0.00542 -0.99839 0.74768 -1.11979 -0.79593
C -1.70798 0.01807 -0.04191 -0.01747 4.11547 -0.05652
H -2.40297 0.88863 -0.11934 0.10079 -0.81462 0.05825
H -2.10670 -0.87937 0.28458 -0.83543 -2.05526 0.88006
C -0.03419 -1.27493 -1.15973 2.72802 0.75718 -1.68457
H -0.48980 0.76826 -1.72222 -0.25275 0.36112 -0.05752
O -0.04695 -2.15592 -0.33972 -1.01443 -1.22304 1.21823
C 0.99794 -1.43301 -2.34739 -2.46505 0.49847 0.18733
H 1.38773 -0.43357 -2.60316 0.02789 -0.27812 -0.39576
H 0.40545 -1.91648 -3.18509 0.81331 0.61660 0.43108
H 1.77674 -2.10571 -2.02649 0.48828 -0.40280 0.16976
22
Lattice="100.000000 0.000000 0.000000 0.000000 100.000000 0.000000 0.000000 0.000000 100.000000" energy=-11550.21002770 Properties=species:S:1:pos:R:3:forces:R:3
C -0.12774 1.85810 1.09050 0.29994 -0.76856 0.04590
C -0.90421 0.74661 1.70179 -0.87169 0.67613 0.87753
C -0.03144 -0.30204 1.97526 -0.55622 0.19030 1.05316
H -1.80147 0.99861 2.28470 0.04450 -0.41167 -0.04547
C 1.16554 -0.07660 1.29925 0.22169 0.03692 -0.67418
H -0.24273 -1.15855 2.61603 -0.11242 -0.09717 -0.19380
C 1.05489 1.11305 0.62410 0.10776 0.27984 -1.26788
H 1.90819 -0.84119 1.11898 0.48116 -0.07281 0.18496
H 1.70085 1.54181 -0.13188 0.64910 -0.03436 0.04165
H 0.23566 2.59579 1.78822 0.36663 0.28532 1.44404
H -0.64978 2.53383 0.44521 -0.52280 0.13608 -1.30549
C -0.60766 0.00588 -1.01106 -1.97507 -0.50544 1.08008
C -1.75231 0.10426 -0.17690 0.94823 0.00823 -0.04900
H -2.54511 0.86300 -0.27975 0.63252 0.29140 -0.22918
H -2.15210 -0.71966 0.40977 0.24613 -0.67658 -0.53113
C 0.08804 -1.27830 -1.16041 -2.82435 1.47115 1.52527
H -0.44245 0.75937 -1.75018 0.17390 0.75957 -0.62104
O -0.13867 -2.15755 -0.31685 0.95387 0.30133 -1.17884
C 0.93252 -1.46044 -2.35796 -0.12056 -0.10553 0.60189
H 1.53411 -0.58765 -2.61940 1.10427 -0.06086 0.85835
H 0.40992 -1.47625 -3.31052 -0.92529 -0.97957 -0.14554
H 1.29301 -2.39323 -1.93442 1.67331 -0.72236 -1.48452
22
Lattice="100.000000 0.000000 0.000000 0.000000 100.000000 0.000000 0.000000 0.000000 100.000000" energy=-11550.71221777 Properties=species:S:1:pos:R:3:forces:R:3
C -0.05265 1.76521 0.98573 1.30180 0.76039 -1.61660
C -0.89766 0.78697 1.62790 -1.23480 -1.61826 0.97406
C -0.04387 -0.27355 1.93165 0.85282 -0.17957 0.54126
H -1.76839 0.96613 2.30129 0.45551 0.17835 -0.69843
C 1.19796 -0.15619 1.26367 -0.83774 -0.36387 0.25606
H -0.31153 -1.09486 2.56756 -0.15040 -0.58295 0.43515
C 1.06771 0.93265 0.43569 0.02546 0.29836 0.56555
H 2.00281 -0.88599 1.33223 0.01427 -0.05623 -0.20710
H 1.79947 1.35652 -0.23106 0.48450 0.10348 -0.32299
H 0.43238 2.42412 1.71324 -0.10209 0.42808 0.26924
H -0.45414 2.31762 0.15724 -0.74733 0.94876 -0.25298
C -0.73036 -0.06421 -1.05482 0.85693 0.60664 0.25077
C -1.76526 0.07109 -0.12945 0.40074 -0.83631 -0.13510
H -2.48812 0.89319 -0.17788 -0.03468 -0.27065 -0.20848
H -2.08185 -0.93557 0.19296 -0.28745 0.53593 0.47520
C 0.11815 -1.26285 -1.07684 -0.62330 0.67567 -3.36813
H -0.50947 0.64489 -1.84507 -0.06573 0.54571 -0.03348
O -0.09470 -2.19971 -0.36319 0.23524 -1.32540 1.42359
C 1.06145 -1.41833 -2.36533 -0.31794 0.46752 2.40910
H 1.46169 -0.46823 -2.71757 -0.13613 0.41264 -0.19851
H 0.42498 -1.87401 -3.12705 0.16331 -0.31560 -0.21933
H 1.93271 -2.01339 -2.05140 -0.26138 -0.41270 -0.34953
22
Lattice="100.000000 0.000000 0.000000 0.000000 100.000000 0.000000 0.000000 0.000000 100.000000" energy=-11549.53488645 Properties=species:S:1:pos:R:3:forces:R:3
C -0.04818 1.81163 0.92360 1.43671 0.28984 0.81378
C -0.84832 0.83884 1.68585 0.72541 -1.64553 -1.07823
C 0.03855 -0.25893 2.01046 0.92339 1.00397 -0.36452
H -1.61864 1.22784 2.33641 -0.61662 -0.34496 0.25945
C 1.29920 -0.12876 1.32270 -2.78604 1.65605 -0.47750
H -0.26979 -1.13205 2.57113 -0.01629 -0.20871 0.30126
C 1.18003 1.06425 0.55425 -0.92165 -1.95933 0.25057
H 2.01634 -0.91538 1.10258 0.17179 -0.05992 0.40534
H 1.78243 1.24140 -0.31187 0.80316 0.68124 -0.36031
H 0.06453 2.73090 1.45787 1.16206 0.85607 1.82130
H -0.51926 2.34518 0.15183 -1.08910 0.07194 -2.08047
C -0.61692 0.07960 -0.96028 -0.06348 -2.32349 0.40304
C -1.65048 0.09901 0.00429 -0.06321 0.12759 -0.18196
H -2.50840 0.71497 -0.22401 -0.15065 1.16705 0.24977
H -2.07257 -0.84421 0.32085 0.47162 -0.71338 0.27377
C 0.00637 -1.25327 -1.16571 -2.37445 0.31381 1.43246
H -0.49001 0.81039 -1.75079 -0.03670 0.42710 -0.00909
O -0.17159 -2.18166 -0.33305 0.73845 1.66668 -1.78345
C 0.86268 -1.39931 -2.36642 -0.93163 0.15382 -1.10816
H 1.12457 -0.43838 -2.83074 1.48269 0.32091 1.11528
H 0.47775 -1.71955 -3.36087 -0.96390 -1.08810 0.83312
H 1.46934 -2.16359 -1.92806 2.09946 -0.39934 -0.72812
22
Lattice="100.000000 0.000000 0.000000 0.000000 100.000000 0.000000 0.000000 0.000000 100.000000" energy=-11550.45835044 Properties=species:S:1:pos:R:3:forces:R:3
C -0.06179 1.87364 0.91212 -0.76766 -1.51071 0.77518
C -0.83930 0.74108 1.62770 -1.13416 -0.62572 -0.57432
C -0.00736 -0.36186 2.00143 1.78203 2.12546 -1.19124
H -1.69687 0.97563 2.23828 -0.59147 0.22437 0.31434
C 1.22709 -0.10884 1.32184 -1.45257 0.74170 -0.88699
H -0.24937 -1.27225 2.54443 -0.22623 0.14192 0.15202
C 1.09111 1.05999 0.52975 1.02719 -1.58982 -0.03936
H 2.01839 -0.81871 1.10388 0.24482 -0.21910 0.41120
H 1.82753 1.30630 -0.22998 0.22802 0.35929 0.00144
H 0.10807 2.62364 1.66226 0.82112 0.63253 1.05606
H -0.54170 2.47278 0.12389 -0.26796 -0.56214 -0.14900
C -0.67630 -0.05451 -0.94017 0.30300 -0.36609 -0.24429
C -1.72383 0.04261 -0.00822 1.16440 0.60913 -0.05120
H -2.31770 0.93348 -0.19687 -0.68889 -0.13946 0.26050
H -2.17678 -0.88173 0.34578 -0.15149 0.00924 0.12240
C 0.05004 -1.29646 -1.12351 -1.58679 0.15028 -0.88001
H -0.53060 0.70718 -1.68198 0.06881 0.69897 -0.41120
O -0.14621 -2.18415 -0.30899 0.62873 -0.72630 0.18735
C 0.94889 -1.47789 -2.35435 0.55273 0.98118 1.84533
H 1.30001 -0.49972 -2.68089 0.80567 0.58226 0.53259
H 0.56052 -1.73850 -3.32347 -0.96084 -1.39914 -0.26012
H 1.74470 -2.10568 -1.92034 0.20504 -0.11819 -0.97673
22
Lattice="100.000000 0.000000 0.000000 0.000000 100.000000 0.000000 0.000000 0.000000 100.000000" energy=-11550.37618079 Properties=species:S:1:pos:R:3:forces:R:3
C -0.06222 1.80451 1.00398 0.34876 -0.46735 -0.00684
C -0.84603 0.73182 1.70009 -2.16743 -0.14047 -0.22413
C -0.03994 -0.34112 2.08963 1.70322 1.37726 -1.53577
H -1.76876 0.99806 2.21366 -0.16663 0.03104 0.25704
C 1.18868 -0.11604 1.38183 -0.84424 -0.39427 -0.82705
H -0.28828 -1.29419 2.55200 -0.17107 0.23301 0.38573
C 1.10043 1.00623 0.53226 -0.16227 -1.01466 1.24943
H 1.89535 -0.93503 1.30138 0.59173 0.08011 -0.01652
H 1.80681 1.35181 -0.21895 0.30405 -0.03916 0.13515
H 0.18387 2.41500 1.88462 0.52474 0.71321 -0.14798
H -0.51438 2.40131 0.18705 -0.23910 -0.11651 0.65890
C -0.72326 -0.07962 -0.93481 -0.54230 1.26312 -0.78678
C -1.78082 0.07914 -0.01455 1.03344 -1.06176 -0.26559
H -2.50438 0.88575 -0.17727 0.21139 0.06031 0.17065
H -2.17703 -0.82415 0.46148 -0.07072 0.00259 -0.21960
C 0.02578 -1.31154 -1.17391 -0.28980 1.74091 0.73596
H -0.55913 0.73967 -1.64835 -0.03360 -0.05399 0.00896
O -0.10053 -2.19454 -0.36253 0.06314 -1.69435 0.72392
C 0.97842 -1.48694 -2.34178 -1.60780 2.08656 0.56459
H 1.19439 -0.58140 -2.92798 0.51309 0.42150 0.68102
H 0.27114 -1.89988 -3.04000 0.28616 -1.92383 -0.74808
H 1.82066 -1.94342 -1.85509 0.72126 -1.10027 -0.79541
22
Lattice="100.000000 0.000000 0.000000 0.000000 100.000000 0.000000 0.000000 0.000000 100.000000" energy=-11550.66663599 Properties=species:S:1:pos:R:3:forces:R:3
C -0.04790 1.83203 0.96070 1.76412 -0.62122 1.82749
C -0.86629 0.77132 1.61991 -1.41918 -0.20048 1.07373
C 0.01590 -0.27682 1.98272 -1.16367 0.34546 1.32744
H -1.81798 1.02902 2.21816 1.50887 -0.43290 -0.84771
C 1.21676 -0.13033 1.32805 -0.96479 2.47108 -1.76282
H -0.21447 -1.07559 2.70095 -0.09281 0.05132 -0.39053
C 1.13922 1.03675 0.51652 0.33935 -1.46208 0.54977
H 1.91799 -0.89940 1.24067 1.60659 -1.13718 0.04733
H 1.98321 1.39362 -0.08748 -0.30367 0.09397 -0.02881
H 0.37683 2.50557 1.77514 -0.59487 -0.31868 -0.59686
H -0.55307 2.40223 0.23603 -0.66847 1.13095 -1.19668
C -0.69475 -0.01877 -1.01648 0.64286 -2.18414 0.73444
C -1.69761 0.02889 -0.07524 -0.90989 0.16028 1.26314
H -2.42301 0.87358 -0.12363 0.24126 -0.73617 -0.01273
H -2.02058 -0.93075 0.41014 0.08055 0.81737 -0.77299
C 0.04814 -1.27225 -1.19991 -0.76743 -1.09503 1.59608
H -0.47085 0.76225 -1.65584 0.22209 1.91463 -1.56469
O -0.11352 -2.20163 -0.39191 0.13875 0.76016 -0.82716
C 0.98065 -1.40229 -2.35258 -0.67143 -3.06716 -1.13182
H 1.38758 -0.44029 -2.56817 0.63006 0.77075 -0.93276
H 0.45986 -1.98348 -3.22755 0.31707 1.78790 1.01191
H 1.72824 -2.22088 -2.19745 0.06872 0.94673 0.62509
22
Lattice="100.000000 0.000000 0.000000 0.000000 100.000000 0.000000 0.000000 0.000000 100.000000" energy=-11550.03033868 Properties=species:S:1:pos:R:3:forces:R:3
C -0.11803 1.78251 0.94012 0.66930 -0.18518 1.20605
C -0.98124 0.74684 1.64432 2.29895 -1.27664 -1.70289
C -0.06316 -0.34727 1.93437 2.48295 2.15727 0.80241
H -1.66401 1.10141 2.40030 -0.83550 -0.22550 0.16119
C 1.23140 -0.16292 1.29485 -3.22799 0.73275 0.37824
H -0.14981 -0.95129 2.81473 -0.55990 -1.12048 0.23983
C 1.06495 0.98777 0.51334 -0.68954 -1.13116 -1.17096
H 2.09126 -0.83284 1.24717 -0.20516 -0.10618 0.20111
H 1.76502 1.26625 -0.26196 0.37844 0.54431 -0.09577
H 0.30295 2.46131 1.70620 -0.27926 0.27669 0.19222
H -0.65817 2.35894 0.20259 0.04199 0.43424 -0.49438
C -0.65143 -0.00001 -0.92805 0.35324 -1.10258 -0.77880
C -1.74994 0.05186 -0.00725 1.07691 -0.18109 0.65567
H -2.54898 0.76648 -0.18843 -0.08984 0.29332 -0.08936
H -2.09852 -0.88191 0.44047 -0.04153 -0.19901 -0.48211
C 0.09117 -1.27299 -1.15346 -1.45315 -0.39546 0.34984
H -0.54585 0.71057 -1.75047 -0.17075 0.37488 0.16459
O -0.02950 -2.21142 -0.37444 -0.20229 0.16548 0.75065
C 0.92202 -1.58664 -2.35357 -0.59836 1.78736 -1.28223
H 1.27867 -0.72007 -2.91159 1.74806 0.91036 0.91851
H 0.36140 -1.72046 -3.29056 -1.17632 -1.58742 0.38216
H 1.59480 -2.39764 -2.11046 0.47196 -0.17470 -0.31598
22
Lattice="100.000000 0.000000 0.000000 0.000000 100.000000 0.000000 0.000000 0.000000 100.000000" energy=-11550.84111932 Properties=species:S:1:pos:R:3:forces:R:3
C -0.05388 1.72580 0.96922 -0.30486 0.92038 -0.72346
C -0.87750 0.73517 1.68389 -0.24375 -0.58889 -0.93570
C -0.03175 -0.28736 2.03916 0.56511 0.10669 0.86860
H -1.76434 0.99224 2.22113 -0.71265 0.25265 0.52075
C 1.18775 -0.13868 1.34717 0.26732 -0.37848 -0.60438
H -0.28651 -0.97781 2.83128 0.12528 -0.66485 -0.06278
C 1.12520 0.98062 0.53164 0.07535 -1.24444 1.04113
H 1.96346 -0.89864 1.30904 0.19541 -0.08548 0.12909
H 1.85560 1.30606 -0.19817 0.25791 0.18179 -0.02631
H 0.10820 2.42638 1.78531 0.72909 0.87101 0.18354
H -0.44589 2.22709 0.09319 -0.79873 0.66587 0.01393
C -0.69626 -0.04726 -0.98730 -0.27462 -0.71800 -0.11999
C -1.74932 -0.00306 -0.08219 0.55002 0.44932 -0.44897
H -2.36524 0.88136 -0.00124 -0.49112 0.18403 -0.46954
H -2.21721 -0.94602 0.15782 0.05179 -0.40457 0.67610
C 0.01152 -1.31934 -1.14674 -0.50885 -0.90973 0.68551
H -0.52726 0.72602 -1.72047 0.20864 0.57849 -0.10471
O -0.20379 -2.22484 -0.32913 0.61806 0.60538 -1.07102
C 0.95128 -1.45335 -2.34872 -0.48346 0.44068 0.21554
H 1.12270 -0.43536 -2.73981 0.00640 -0.27564 -0.29620
H 0.48689 -2.09903 -3.12369 0.06084 0.27357 0.20616
H 1.92679 -1.88328 -2.11327 0.11528 -0.25455 0.32590
22
Lattice="100.000000 0.000000 0.000000 0.000000 100.000000 0.000000 0.000000 0.000000 100.000000" energy=-11550.44799223 Properties=species:S:1:pos:R:3:forces:R:3
C -0.03341 1.82292 0.99323 -0.22597 0.45198 -0.93863
C -0.93005 0.79842 1.62713 1.43360 -1.16136 0.50117
C 0.01121 -0.21255 2.04057 -0.79744 -0.71267 -0.65471
H -1.76603 1.08549 2.28764 0.08431 -0.18852 -0.40019
C 1.22445 -0.15665 1.31372 -1.19214 1.61802 0.42458
H -0.26790 -1.10866 2.58859 -0.09299 0.00561 0.50497
C 1.12526 0.99082 0.51900 0.30903 -0.71652 0.61462
H 2.08329 -0.82130 1.45448 -0.26935 -0.03566 -0.37441
H 1.99037 1.34014 -0.02905 0.04218 0.42253 -0.51752
H 0.35755 2.50731 1.75825 0.08693 0.04042 0.40242
H -0.53505 2.50459 0.26945 0.31431 -0.42095 -0.01358
C -0.74612 -0.01352 -1.04048 0.90199 -0.09469 0.39117
C -1.74158 0.07731 -0.07847 0.26765 0.89272 -0.37435
H -2.40193 0.94244 -0.13176 -0.36272 -0.14945 0.00532
H -2.13722 -0.91920 0.01172 -0.68436 -0.44191 1.20296
C -0.06094 -1.29333 -1.18011 1.37118 0.23321 0.97922
H -0.32029 0.82668 -1.55962 -0.16324 0.48398 -0.66644
O -0.16860 -2.19999 -0.36426 -0.78680 -0.01928 0.03774
C 0.92435 -1.47271 -2.28715 0.27968 1.68227 -0.12314
H 1.46498 -0.57927 -2.64467 -0.04393 0.47582 0.69673
H 0.24208 -1.53516 -3.12033 -0.02062 -1.48979 -1.16742
H 1.70751 -2.18152 -2.01779 -0.45091 -0.87338 -0.53035
22
Lattice="100.000000 0.000000 0.000000 0.000000 100.000000 0.000000 0.000000 0.000000 100.000000" energy=-11550.80082732 Properties=species:S:1:pos:R:3:forces:R:3
C -0.13763 1.82179 0.98888 1.76445 -0.34196 0.01797
C -0.88569 0.71681 1.62194 -0.08230 -1.71074 0.90465
C 0.07326 -0.26777 2.05138 -1.27973 0.82735 -0.36264
H -1.68735 0.87598 2.32784 -0.76300 0.32243 0.01233
C 1.24336 -0.09090 1.34559 0.57715 0.82709 -0.34493
H -0.12767 -1.05398 2.76285 -0.17499 -0.36998 0.17125
C 1.10832 1.06581 0.57363 -0.46997 -0.54228 -0.49856
H 2.10883 -0.75579 1.38751 -0.03733 0.06775 -0.18375
H 1.84657 1.38702 -0.15313 0.19758 0.38630 -0.03871
H 0.15496 2.56850 1.73659 0.19937 -0.00222 0.65061
H -0.59352 2.44499 0.24088 -0.57470 0.06106 -0.83567
C -0.66931 0.03359 -1.00017 0.12749 -1.53388 0.39297
C -1.72733 0.01855 -0.10205 -0.26422 1.26077 0.43681
H -2.43000 0.86347 -0.12660 -0.01272 -0.20171 -0.10886
H -2.20213 -0.94852 0.03238 0.14401 -0.32427 0.78174
C 0.02891 -1.23823 -1.18180 1.44906 -0.29065 -0.36736
H -0.47976 0.84094 -1.67299 0.23871 0.65333 -0.48966
O -0.02214 -2.23077 -0.47959 -1.49667 -0.05693 1.44047
C 1.00658 -1.38531 -2.28871 -0.14004 1.28548 -1.61219
H 1.27233 -0.40165 -2.69357 0.11285 0.12929 -0.38051
H 0.50169 -1.95627 -3.09617 0.35680 0.03215 0.14243
H 1.93121 -1.86841 -1.99084 0.13137 -0.48064 0.27473
22
Lattice="100.000000 0.000000 0.000000 0.000000 100.000000 0.000000 0.000000 0.000000 100.000000" energy=-11551.10332682 Properties=species:S:1:pos:R:3:forces:R:3
C -0.09702 1.86248 0.87365 -0.54794 0.31255 0.20345
C -1.02034 0.78264 1.49281 -1.31431 0.60310 -1.26564
C -0.13830 -0.20605 2.02542 2.17536 0.14635 0.52777
H -1.87784 1.08460 2.11489 0.09450 0.08882 -0.16974
C 1.07318 -0.09112 1.32376 -2.65579 0.45708 -0.27810
H -0.29337 -0.82449 2.93893 -0.19693 0.05660 -0.97279
C 0.92615 0.91254 0.32796 0.10958 -0.29680 -0.19966
H 1.82645 -0.80889 1.24507 1.57425 -1.32307 0.43730
H 1.78452 1.16996 -0.30506 -0.26732 0.20580 -0.06582
H 0.38216 2.44920 1.72157 -0.46781 -0.38871 -0.75715
H -0.61329 2.57856 0.16519 0.55385 -0.70822 0.54045
C -0.64092 -0.08688 -0.99968 1.44253 2.14244 0.01322
C -1.69832 0.11193 -0.07094 -0.21920 0.15317 1.09226
H -2.38314 0.89261 -0.49708 0.00196 -0.77675 0.93664
H -2.07804 -0.87559 0.23130 -0.64828 0.38769 0.03228
C 0.03734 -1.33934 -1.18462 -0.16598 0.20652 0.13978
H -0.53542 0.68479 -1.76417 0.14341 -0.07314 -0.28870
O -0.17685 -2.25670 -0.42145 -0.11430 -0.97958 0.55240
C 1.03861 -1.47071 -2.28265 1.02969 1.70557 0.08702
H 1.30404 -0.49880 -2.78253 -0.10405 -0.48649 0.63707
H 0.61464 -2.03502 -3.08044 -0.30502 -1.21756 -0.78523
H 1.94599 -1.91867 -1.84558 -0.10720 -0.23133 -0.41412
22
Lattice="100.000000 0.000000 0.000000 0.000000 100.000000 0.000000 0.000000 0.000000 100.000000" energy=-11550.78685669 Properties=species:S:1:pos:R:3:forces:R:3
C -0.22706 1.98223 0.94670 0.69284 -0.07303 1.52387
C -1.16828 0.91744 1.65527 -1.38763 1.98360 -1.42519
C -0.34752 -0.20089 2.04532 1.77547 0.68936 -0.06802
H -1.85375 1.39667 2.41512 0.20037 -0.73001 -0.81368
C 0.85145 -0.03401 1.36934 0.97109 -2.32061 0.50005
H -0.64800 -1.12420 2.55896 0.01636 0.43803 0.00895
C 0.89757 1.10732 0.54174 -1.12418 -1.41419 -0.71055
H 1.57108 -0.90127 1.33452 -0.37774 1.06124 -0.04649
H 1.70631 1.36543 -0.16656 -0.31938 -0.06952 0.42638
H 0.21162 2.73249 1.67954 -0.69880 -0.40473 -0.43002
H -0.65522 2.48564 0.07138 -0.27419 0.33443 0.37307
C -0.91095 0.07821 -0.79581 -0.38166 0.38408 1.22825
C -1.93697 0.35012 0.29371 1.56189 -1.66016 -0.68327
H -2.59308 1.03793 -0.18444 -0.98443 1.32776 0.19891
H -2.52313 -0.55039 0.56791 0.38791 0.15783 -0.11902
C -0.36543 -1.23210 -1.05238 -0.58191 0.61615 1.47338
H -0.75363 0.83666 -1.54780 -0.13684 0.37574 -0.42507
O -0.60057 -2.16718 -0.30646 -0.61273 -0.79734 0.89796
C 0.62178 -1.41694 -2.10647 1.45689 0.92626 -0.12615
H 1.55076 -1.80208 -1.60731 -0.42612 0.42541 -0.59383
H 0.75095 -0.46230 -2.64154 0.50346 -0.32446 -0.21189
H 0.26201 -2.17824 -2.75755 -0.25050 -0.92727 -0.98551
22
Lattice="100.000000 0.000000 0.000000 0.000000 100.000000 0.000000 0.000000 0.000000 100.000000" energy=-11549.74902478 Properties=species:S:1:pos:R:3:forces:R:3
C -0.13996 1.86182 1.14051 -0.15064 0.47171 -1.27216
C -0.99228 0.64396 1.51203 0.18185 1.55920 0.38444
C 0.00214 -0.29178 1.92753 -0.19455 -0.84626 0.85094
H -1.97674 0.75799 1.95312 0.25762 0.55093 1.70421
C 1.02896 -0.14424 1.05859 3.75904 -0.06478 1.53909
H -0.21660 -1.01993 2.67798 0.18899 -1.12230 0.16553
C 1.03681 1.16089 0.53618 -0.95993 -1.26890 -1.24283
H 1.88727 -0.84826 0.92765 -0.72637 0.47924 0.15277
H 1.87049 1.60564 -0.02975 -0.40199 -0.06852 0.09662
H 0.22305 2.50408 1.95016 -0.18542 -0.08594 0.57969