19
Lattice="100.000000 0.000000 0.000000 0.000000 100.000000 0.000000 0.000000 0.000000 100.000000" energy=-823.95824906 Properties=species:S:1:pos:R:3:forces:R:3
Mg 50.01674 49.98952 50.02570 -0.06055 0.03512 -0.19475
O 49.87885 50.00890 52.06767 -0.02523 0.22909 0.14577
H 49.83677 49.25310 52.66486 0.01617 -0.09815 -0.17517
H 49.81367 50.77890 52.65651 0.03569 -0.14721 -0.36721
O 47.91528 49.97598 49.86405 -0.01175 0.00018 -0.41514
H 47.27901 49.97768 50.58643 0.09502 -0.00098 0.08685
H 47.37407 49.96716 49.05199 0.42779 0.00304 0.37434
O 50.13503 49.98849 47.89539 -0.03877 -0.30213 0.90297
H 50.17688 49.20893 47.33428 0.00273 0.02814 -0.05389
H 50.15692 50.76300 47.34066 0.01175 0.28227 -0.28274
O 52.09001 50.01464 50.13846 0.26455 0.02475 -0.29594
H 52.61624 50.03443 50.95333 -0.20885 -0.00811 -0.28899
H 52.72855 50.04149 49.39457 -0.53133 -0.02478 0.55821
O 50.02301 47.91344 50.00357 -0.61013 -0.24393 -0.02236
H 49.24284 47.31294 49.94129 0.78378 0.60965 0.05652
H 50.80591 47.35134 50.07124 -0.16461 0.10996 -0.02263
O 49.97478 52.08420 50.01075 0.63133 0.29202 0.03216
H 50.74919 52.69569 50.05056 -0.79675 -0.64737 -0.04588
H 49.18625 52.64016 49.94867 0.17916 -0.14157 0.00789
19
Lattice="100.000000 0.000000 0.000000 0.000000 100.000000 0.000000 0.000000 0.000000 100.000000" energy=-823.89092939 Properties=species:S:1:pos:R:3:forces:R:3
Mg 50.02573 49.99732 50.04242 -0.06536 -0.00413 -0.24284
O 49.88588 50.00624 52.08047 -0.07589 -0.38001 0.39617
H 49.82704 49.21619 52.66184 0.05954 0.64131 -0.52378
H 49.80947 50.77757 52.66545 0.03850 -0.27120 -0.27151
O 47.91791 49.97266 49.85509 -0.02689 -0.00690 -0.60451
H 47.27221 49.98522 50.56322 0.00872 0.00459 0.30924
H 47.37075 49.95125 49.04474 0.53614 0.00948 0.36426
O 50.13247 49.99692 47.89127 -0.03396 -0.40348 1.12461
H 50.17107 49.22190 47.32765 0.00880 -0.05796 -0.11026
H 50.14613 50.77130 47.34461 0.01102 0.47501 -0.42419
O 52.09321 50.00031 50.15136 0.12961 0.04886 -2.05769
H 52.61179 50.05473 50.93612 0.48809 0.04235 0.79439
H 52.73938 50.04146 49.38040 -1.08934 -0.08228 1.23417
O 50.03942 47.92125 50.00775 -1.00917 -0.33518 -0.05070
H 49.25063 47.32165 49.93902 0.92778 0.77760 0.06979
H 50.80386 47.34339 50.08037 0.07380 0.03177 -0.00544
O 49.97705 52.08797 50.02418 0.33038 0.25178 -0.00438
H 50.74901 52.69627 50.04432 -0.70882 -0.51243 -0.02194
H 49.17700 52.63640 49.95974 0.39708 -0.22919 0.02463
19
Lattice="100.000000 0.000000 0.000000 0.000000 100.000000 0.000000 0.000000 0.000000 100.000000" energy=-823.89031021 Properties=species:S:1:pos:R:3:forces:R:3
Mg 50.01954 49.98098 50.04628 -0.01205 0.03595 -0.29450
O 49.90118 49.99466 52.06545 -0.11710 1.14119 0.35892
H 49.83387 49.23361 52.63886 0.00368 -0.35406 0.09513
H 49.81209 50.77542 52.67076 0.12296 -0.79844 -0.79595
O 47.91837 49.97161 49.86445 -0.19826 -0.00677 -0.32354
H 47.26479 49.99862 50.57353 0.20733 0.00007 0.12738
H 47.36976 49.94801 49.05841 0.49491 0.00432 0.25337
O 50.14614 49.98867 47.88943 -0.07708 0.65603 1.37164
H 50.17938 49.22810 47.33328 0.03722 -0.62942 -0.61767
H 50.13983 50.78470 47.35353 0.00782 -0.02219 -0.15635
O 52.08568 49.99517 50.14337 -0.10359 0.00642 -2.10018
H 52.60241 50.07009 50.92145 0.61748 0.07856 1.05458
H 52.73009 50.04049 49.38018 -0.97513 -0.08459 1.02165
O 50.03752 47.91317 50.01972 -0.90781 -0.17612 -0.04277
H 49.24078 47.32938 49.95851 0.90781 0.63143 0.05836
H 50.80836 47.33931 50.06056 -0.01675 0.00679 -0.01066
O 49.98078 52.07833 50.01770 0.27318 0.40842 0.00660
H 50.74642 52.69570 50.04659 -0.68079 -0.58344 -0.02994
H 49.18302 52.63398 49.95793 0.41615 -0.31414 0.02395
19
Lattice="100.000000 0.000000 0.000000 0.000000 100.000000 0.000000 0.000000 0.000000 100.000000" energy=-823.83420036 Properties=species:S:1:pos:R:3:forces:R:3
Mg 50.03197 49.96988 50.04576 -0.09208 0.09628 -0.30504
O 49.88976 50.00582 52.05504 -0.05827 0.20207 0.42411
H 49.82905 49.23114 52.63655 0.03392 0.21778 -0.26748
H 49.81802 50.78178 52.64600 0.05461 -0.44307 -0.46350
O 47.93935 49.97205 49.87278 -1.05855 -0.00149 0.18597
H 47.25751 49.99497 50.58872 0.89915 -0.01564 -0.52268
H 47.38277 49.94721 49.06675 0.63862 0.01279 0.37544
O 50.13778 49.98651 47.88822 -0.10463 1.64198 2.28537
H 50.16503 49.24240 47.35154 0.07477 -1.80421 -1.44336
H 50.14743 50.77822 47.35299 0.00669 0.16066 -0.25684
O 52.07982 49.98808 50.12897 -0.00197 -0.00549 -1.92790
H 52.58613 50.08645 50.91505 0.54375 0.09050 0.89474
H 52.72802 50.03374 49.36963 -0.95520 -0.08493 1.02634
O 50.03662 47.91635 50.02340 -1.08782 -0.76968 -0.05609
H 49.22024 47.32263 49.96302 1.57087 0.99339 0.10379
H 50.82461 47.34879 50.07564 -0.48378 0.20646 -0.04578
O 49.98458 52.08135 50.02561 0.51719 -0.17984 0.02176
H 50.74596 52.69049 50.04887 -0.43414 -0.35089 -0.01822
H 49.19536 52.62215 49.94546 -0.06314 0.03332 -0.01063
19
Lattice="100.000000 0.000000 0.000000 0.000000 100.000000 0.000000 0.000000 0.000000 100.000000" energy=-823.84582448 Properties=species:S:1:pos:R:3:forces:R:3
Mg 50.04542 49.96801 50.03090 -0.19832 0.09376 -0.20799
O 49.88152 50.00684 52.05572 -0.03715 0.23437 0.39159
H 49.82781 49.24121 52.64912 0.02626 0.19865 -0.27092
H 49.80254 50.79073 52.63539 0.05511 -0.45708 -0.46585
O 47.93738 49.98425 49.87051 -0.75344 0.00606 1.13605
H 47.24372 49.99689 50.58874 1.12880 -0.00722 -0.75364
H 47.40392 49.94871 49.07546 0.12164 -0.00992 -0.35769
O 50.14088 49.98801 47.89835 -0.10308 2.16650 1.71262
H 50.17607 49.25215 47.35019 0.08963 -1.84920 -1.37833
H 50.14418 50.78164 47.33774 -0.00434 -0.32403 0.21438
O 52.07590 49.96572 50.13146 0.85190 0.16704 -1.32599
H 52.59221 50.07897 50.93423 -0.02377 -0.02191 0.05105
H 52.73971 50.02895 49.37278 -1.20398 -0.13739 1.26528
O 50.02444 47.92040 50.01418 -0.84926 -0.69538 -0.02404
H 49.22995 47.31381 49.96521 1.20105 0.89723 0.06495
H 50.80907 47.35315 50.08237 -0.33757 0.21456 -0.04118
O 49.98399 52.06894 50.02390 0.52683 0.49033 -0.02976
H 50.75350 52.69031 50.03415 -0.84038 -0.68851 -0.01253
H 49.18778 52.62132 49.94961 0.35008 -0.27785 0.03200
19
Lattice="100.000000 0.000000 0.000000 0.000000 100.000000 0.000000 0.000000 0.000000 100.000000" energy=-823.74487543 Properties=species:S:1:pos:R:3:forces:R:3
Mg 50.04337 49.97636 50.03389 -0.19895 0.02436 -0.26761
O 49.87338 50.00753 52.04374 -0.03441 0.81568 0.44913
H 49.82801 49.25477 52.64052 0.00371 -0.11309 -0.07281
H 49.80579 50.80075 52.62850 0.07095 -0.72525 -0.68326
O 47.93087 49.98708 49.85456 -0.30053 0.05680 2.67023
H 47.24554 49.99224 50.60707 1.43600 -0.00990 -1.29857
H 47.40827 49.95556 49.08232 -0.63256 -0.05409 -1.33190
O 50.14792 49.97394 47.90218 -0.08883 3.72319 1.74510
H 50.16876 49.26063 47.34911 0.07747 -2.67800 -1.98267
H 50.14991 50.78683 47.32477 -0.00464 -1.03707 0.79200
O 52.08126 49.98717 50.14024 0.40813 0.05388 -1.25048
H 52.59405 50.07514 50.94036 0.13359 0.01392 0.33645
H 52.74210 50.02478 49.39555 -0.93641 -0.07196 0.89992
O 50.01140 47.91041 50.01476 0.17202 -0.72938 0.03668
H 49.23073 47.30806 49.94655 0.94443 0.60557 0.07305
H 50.82925 47.35359 50.08238 -1.08228 0.58145 -0.10268
O 49.97815 52.06627 50.01966 0.99747 -0.04143 0.03237
H 50.74697 52.68319 50.03084 -0.78067 -0.57420 -0.02110
H 49.18428 52.59571 49.96302 -0.18448 0.15953 -0.02385
19
Lattice="100.000000 0.000000 0.000000 0.000000 100.000000 0.000000 0.000000 0.000000 100.000000" energy=-823.72385851 Properties=species:S:1:pos:R:3:forces:R:3
Mg 50.04579 49.98331 50.04636 -0.25596 0.00125 -0.35542
O 49.85901 50.00505 52.05040 0.03603 1.32949 -0.03285
H 49.82144 49.26223 52.63293 -0.03477 -0.80981 0.38184
H 49.80509 50.78455 52.64871 0.04484 -0.53461 -0.64585
O 47.92143 49.97936 49.84442 0.57918 0.13415 3.65776
H 47.25177 50.00503 50.60419 1.29318 -0.05306 -1.23300
H 47.40899 49.95715 49.09017 -1.34970 -0.07899 -2.36249
O 50.14528 49.97828 47.90819 -0.02103 2.65422 0.81309
H 50.16825 49.25313 47.33568 0.04043 -1.59911 -1.11637
H 50.16329 50.78687 47.32297 -0.03190 -1.04896 0.86451
O 52.07948 49.99143 50.14095 0.36404 -0.00887 -1.78827
H 52.58498 50.06600 50.93539 0.38161 0.05348 0.74957
H 52.75357 50.01139 49.39738 -1.12490 -0.04687 1.04543
O 50.00284 47.92981 50.01734 0.74747 -1.01398 0.09283
H 49.23844 47.31459 49.94174 0.77866 0.56705 0.06448
H 50.83609 47.36861 50.08759 -1.47846 0.87296 -0.14201
O 49.97696 52.05091 50.00449 1.23617 0.20402 0.10442
H 50.74339 52.67978 50.04487 -0.87566 -0.77571 -0.05967
H 49.19391 52.59252 49.94624 -0.32921 0.15336 -0.03802
19
Lattice="100.000000 0.000000 0.000000 0.000000 100.000000 0.000000 0.000000 0.000000 100.000000" energy=-823.72332829 Properties=species:S:1:pos:R:3:forces:R:3
Mg 50.05000 49.98824 50.03767 -0.23735 -0.01136 -0.30907
O 49.85836 50.00332 52.04623 0.01640 0.62389 0.02049
H 49.81245 49.26201 52.64474 -0.00416 -0.53874 0.06942
H 49.79094 50.76966 52.64024 0.03642 -0.08951 -0.40531
O 47.92042 49.98318 49.84561 0.56545 0.12990 2.73380
H 47.26533 50.00797 50.59683 0.95922 -0.03726 -0.85511
H 47.39863 49.94947 49.08549 -1.00068 -0.08618 -1.82535
O 50.16393 49.97506 47.91032 0.00482 3.86518 1.83525
H 50.15566 49.27455 47.34733 -0.02920 -2.99501 -2.12628
H 50.16370 50.77683 47.32074 0.00371 -0.85845 0.84633
O 52.08112 49.98824 50.14304 0.40676 0.01880 -1.59613
H 52.59779 50.06585 50.93132 0.28215 0.04096 0.79490
H 52.76171 50.02504 49.41324 -1.07699 -0.08221 0.80312
O 49.99863 47.91575 50.01619 1.08294 -0.57634 0.11248
H 49.22678 47.32778 49.94752 0.51885 0.21875 0.03447
H 50.83396 47.35587 50.08106 -1.55529 0.83011 -0.13753
O 49.98346 52.06932 50.00247 0.86199 -0.48811 0.07264
H 50.74910 52.67249 50.03238 -0.50433 -0.28066 -0.03389
H 49.18803 52.58937 49.95757 -0.33071 0.31624 -0.03425
19
Lattice="100.000000 0.000000 0.000000 0.000000 100.000000 0.000000 0.000000 0.000000 100.000000" energy=-823.55316552 Properties=species:S:1:pos:R:3:forces:R:3
Mg 50.04859 49.99426 50.02612 -0.24157 -0.04603 -0.21568
O 49.86890 49.99208 52.06285 0.18032 1.30021 -1.56495
H 49.80387 49.27568 52.64235 -0.12064 -1.77394 1.09690
H 49.78929 50.76147 52.62223 -0.01625 0.50241 0.09706
O 47.92410 49.98298 49.84861 0.23389 0.11710 2.29810
H 47.25974 49.99486 50.59191 0.98590 -0.01650 -0.82690
H 47.40134 49.93811 49.07934 -0.70549 -0.08044 -1.42708
O 50.16465 49.97364 47.89722 0.03106 4.69700 2.54107
H 50.15047 49.27714 47.35168 -0.06757 -3.83386 -2.77901
H 50.15829 50.77627 47.31038 0.01471 -0.85099 0.79479
O 52.07119 49.99103 50.14656 1.30822 0.11922 -1.07390
H 52.60319 50.05307 50.95370 -0.28945 -0.03538 -0.12039
H 52.76403 50.02523 49.40787 -1.39051 -0.08198 1.18178
O 49.98477 47.92827 50.03234 2.14964 -0.88293 0.13292
H 49.22751 47.33343 49.95896 0.34048 0.03565 0.02209
H 50.86234 47.36496 50.08731 -2.42981 1.29775 -0.16534
O 49.99004 52.07713 49.99393 -0.18017 -0.81764 0.02817
H 50.74496 52.66221 50.02945 0.11784 0.25379 -0.00783
H 49.18274 52.59818 49.95719 0.07940 0.09655 -0.01180
19
Lattice="100.000000 0.000000 0.000000 0.000000 100.000000 0.000000 0.000000 0.000000 100.000000" energy=-823.50402546 Properties=species:S:1:pos:R:3:forces:R:3
Mg 50.04385 49.99055 50.03137 -0.19151 -0.07941 -0.25112
O 49.86934 50.00063 52.04628 0.09397 0.74108 -0.81052
H 49.80256 49.28645 52.65107 -0.04999 -1.23231 0.53946
H 49.77858 50.76277 52.61796 -0.00208 0.50536 -0.04675
O 47.91578 49.98292 49.85797 0.34997 0.07208 1.84668
H 47.24632 49.98719 50.58175 0.74982 -0.00864 -0.50797
H 47.40353 49.95556 49.07700 -0.58535 -0.04889 -1.30333
O 50.16154 49.95126 47.91562 0.04243 5.37314 2.14821
H 50.14072 49.26723 47.35618 -0.09931 -3.83865 -2.86819
H 50.15050 50.77864 47.31941 0.03395 -1.49741 1.25475
O 52.08637 49.98281 50.14952 0.90259 0.10766 -2.11359
H 52.59319 50.05453 50.94822 0.26075 0.02665 0.56163
H 52.77920 50.03269 49.39347 -1.57688 -0.12840 1.54371
O 49.99374 47.92392 50.02414 2.08170 -0.73192 0.15338
H 49.22655 47.33691 49.95913 0.52241 0.01744 0.03240
H 50.88456 47.38133 50.08152 -2.55362 1.17055 -0.18021
O 49.99045 52.07042 49.99589 -0.39194 -0.96861 0.00808
H 50.74038 52.65034 50.03008 0.44468 0.42833 0.00774
H 49.19284 52.60386 49.96342 -0.03158 0.09197 -0.01435
19
Lattice="100.000000 0.000000 0.000000 0.000000 100.000000 0.000000 0.000000 0.000000 100.000000" energy=-823.78621495 Properties=species:S:1:pos:R:3:forces:R:3
Mg 50.04046 49.99186 50.06150 -0.34453 -0.32514 -0.39257
O 49.91495 50.03973 52.06614 -0.45719 0.68808 0.77359
H 49.70332 49.36323 52.73505 0.20436 0.15384 -0.45586
H 49.71115 50.89146 52.52833 0.29300 -0.83450 -0.57348
O 47.88157 49.99140 49.91537 0.83995 0.09441 -0.26077
H 47.27291 49.92722 50.65225 -0.25377 -0.05461 -0.06617
H 47.40650 49.90702 49.07676 0.01402 -0.01454 0.33879
O 50.19964 49.95860 47.92137 -0.04090 0.65660 0.80872
H 50.40682 49.23940 47.33623 0.04242 -0.53388 -0.27622
H 50.33783 50.76923 47.41720 -0.10228 -0.06365 0.01088
O 52.10402 49.94353 50.13724 0.22622 0.08407 -1.85897
H 52.53076 50.41839 50.83253 0.37506 0.29400 0.82265
H 52.71533 50.06320 49.34980 -0.95641 -0.36501 1.09767
O 49.98692 47.89425 50.00176 -0.88782 -0.02190 -0.01314
H 49.32119 47.16656 49.97220 0.57922 0.80606 -0.03642
H 50.79775 47.49774 50.30483 0.43321 -0.21337 0.10236
O 49.98018 52.06578 50.03270 0.12989 0.62868 -0.04540
H 50.73344 52.69183 49.98498 -0.50409 -0.49510 0.02997
H 49.18450 52.63354 49.99871 0.40963 -0.48403 -0.00563
19
Lattice="100.000000 0.000000 0.000000 0.000000 100.000000 0.000000 0.000000 0.000000 100.000000" energy=-823.89106825 Properties=species:S:1:pos:R:3:forces:R:3
Mg 50.01312 49.95997 50.03365 0.10942 0.17065 -0.31338
O 49.88199 50.01020 52.04590 -0.03804 0.38114 -1.41234
H 49.93145 49.28356 52.63988 0.04515 -0.83258 0.72752
H 49.98377 50.81376 52.54328 0.03737 0.45097 0.34465
O 47.93473 49.95880 49.85892 0.50916 0.06297 0.43876
H 47.36076 50.13991 50.62112 0.09940 -0.10827 -0.44498
H 47.40090 49.74729 49.08871 -0.12913 0.03622 0.07461
O 50.16276 50.01089 47.94604 -0.24559 0.51892 1.16423
H 50.35278 49.29996 47.36198 0.21328 -0.95297 -0.61602
H 50.09893 50.78919 47.39736 -0.04971 0.40789 -0.12648
O 52.10813 49.99627 50.01648 0.43614 -0.16199 -0.46727
H 52.73938 50.06638 50.74250 -0.24043 0.04905 0.15781
H 52.69463 49.85113 49.24322 -0.66319 0.12687 0.39866
O 50.07420 47.90250 49.97326 -0.13519 -0.16546 0.06297
H 49.24164 47.39504 49.97531 0.53363 0.21032 -0.00281
H 50.81108 47.26411 50.01471 -0.47633 0.37934 -0.02322
O 49.96853 52.10642 49.98095 1.63173 0.31509 0.42968
H 50.69914 52.78354 50.12970 -1.17969 -1.17216 -0.26468
H 49.18709 52.60115 49.76627 -0.45798 0.28398 -0.12771
19
Lattice="100.000000 0.000000 0.000000 0.000000 100.000000 0.000000 0.000000 0.000000 100.000000" energy=-823.93178159 Properties=species:S:1:pos:R:3:forces:R:3
Mg 49.97185 50.00395 50.03449 0.31827 0.17242 -0.20461
O 49.87995 50.04719 52.06683 0.70184 1.33877 -1.43222
H 49.42232 49.38765 52.52596 -0.80427 -1.36276 1.08868
H 49.93331 50.82713 52.62814 0.07856 -0.02970 0.05771
O 47.93990 49.97181 49.83310 -0.46603 -0.33155 0.83971
H 47.36738 49.85479 50.62681 0.49769 0.21767 -0.72448
H 47.37815 49.72836 49.08564 0.19971 0.14169 0.00199
O 50.09825 49.98291 47.93586 -0.08470 0.43869 -0.09227
H 50.26388 49.22443 47.36584 0.00254 0.00068 0.06379
H 49.93615 50.73553 47.33345 0.09200 -0.41671 0.46958
O 52.06335 50.03250 50.16306 0.24303 0.04963 -0.12345
H 52.73891 49.95847 50.86544 -0.55591 0.02031 -0.36349
H 52.55472 50.16041 49.33408 -0.20125 -0.05593 0.37077
O 50.02010 47.99819 50.00206 -0.57807 -0.25072 0.01164
H 49.23617 47.42006 50.03838 0.33544 0.33956 -0.00413
H 50.75691 47.39166 49.88845 0.21586 0.10706 0.03979
O 49.94779 52.05180 49.96336 0.16289 0.22601 0.18361
H 50.72223 52.63902 50.06925 -0.53845 -0.37224 -0.10057
H 49.15384 52.60976 50.02412 0.38085 -0.23287 -0.08204
19
Lattice="100.000000 0.000000 0.000000 0.000000 100.000000 0.000000 0.000000 0.000000 100.000000" energy=-823.82744408 Properties=species:S:1:pos:R:3:forces:R:3
Mg 50.01468 49.98149 50.03818 -0.02865 -0.00657 -0.21987
O 49.87331 50.01374 52.07650 0.07819 -3.34662 -1.05289
H 49.80379 49.18317 52.64071 0.10805 1.41986 -0.83084
H 49.81329 50.74674 52.62214 -0.15956 1.89252 1.50568
O 47.92730 49.95115 49.85496 0.29703 -0.02359 0.82552
H 47.28662 49.90388 50.58706 0.35575 0.01251 -0.30987
H 47.41145 50.02073 49.05808 -0.18321 0.02154 -0.45972
O 50.13880 49.98812 47.90498 -0.08684 -1.22511 -0.56808
H 50.09761 49.22346 47.24741 0.08028 1.33839 1.16255
H 50.23088 50.79590 47.39007 -0.00425 -0.08242 -0.01984
O 52.11204 50.00975 50.15887 -0.11042 0.00950 0.32187
H 52.65895 50.04861 50.96906 -0.31822 -0.02084 -0.62821
H 52.70162 49.99528 49.39212 -0.08914 0.00204 0.26163
O 50.02365 47.90324 50.01360 -0.02104 0.51468 0.07465
H 49.27317 47.30196 49.89764 0.41353 0.05528 0.04903
H 50.83802 47.41424 50.19235 -0.35517 -0.09841 -0.10504
O 49.97021 52.07231 50.02052 -0.81366 -0.48079 -0.08320
H 50.73149 52.64492 50.08165 0.15221 0.29476 0.01143
H 49.15880 52.61413 49.94238 0.68512 -0.27674 0.06520
19
Lattice="100.000000 0.000000 0.000000 0.000000 100.000000 0.000000 0.000000 0.000000 100.000000" energy=-823.89528580 Properties=species:S:1:pos:R:3:forces:R:3
Mg 50.01622 49.98777 49.97213 -0.04824 0.42268 0.05963
O 49.86155 50.09592 52.00766 -0.00617 -0.27707 -0.33645
H 49.60005 49.32362 52.52386 0.03266 0.21365 0.08454
H 50.00812 50.82879 52.61551 -0.03307 -0.01981 -0.06405
O 47.90013 50.01254 49.79229 0.93404 -0.12420 -0.21980
H 47.33838 50.09532 50.54746 -0.38748 0.19063 0.81798
H 47.30305 49.79271 49.08080 -0.07660 -0.07274 -0.47946
O 50.10945 49.94920 47.98242 -0.05784 -0.11049 -0.23386
H 50.03812 49.11036 47.52176 0.05907 -0.47976 0.26348
H 50.03475 50.54792 47.23323 0.04861 0.53463 0.19843
O 52.12835 50.00068 50.15631 0.40414 -0.26523 -0.02383
H 52.59492 49.87281 51.01106 -0.29894 0.18277 -0.82122
H 52.79347 49.93398 49.43206 -0.60925 0.09016 0.78378
O 50.04086 47.97366 50.04029 -0.75837 -0.68326 0.42675
H 49.32240 47.31506 50.21015 0.53463 0.78647 -0.33276
H 50.82654 47.51362 50.34891 0.23095 0.07319 -0.10682
O 50.02521 52.06733 49.98514 0.32705 -0.14869 -0.33665
H 50.83631 52.53212 49.71056 -0.42826 -0.20078 0.21593
H 49.28342 52.64527 49.76221 0.13305 -0.11215 0.10439
19
Lattice="100.000000 0.000000 0.000000 0.000000 100.000000 0.000000 0.000000 0.000000 100.000000" energy=-823.87284365 Properties=species:S:1:pos:R:3:forces:R:3
Mg 49.99390 50.03276 49.98724 -0.41665 -0.09788 -0.04607
O 49.85613 49.99743 52.07322 -0.04467 -0.07041 -0.29833
H 49.77335 49.14966 52.52749 0.03813 0.08419 -0.06311
H 49.56409 50.67074 52.70038 0.06796 -0.04508 -0.10827
O 47.91536 50.00524 49.78513 0.60819 -0.05035 -0.43623
H 47.26465 49.94248 50.48240 -0.24232 -0.02345 0.10435
H 47.48058 49.81580 48.93841 0.09328 0.10077 0.39023
O 50.15455 50.00865 47.91879 0.15070 -0.50526 -0.25324
H 50.29049 49.35892 47.19866 -0.12484 0.23013 0.64070
H 50.14190 50.84870 47.45943 -0.07614 0.35341 0.04093
O 52.04278 50.02456 50.07378 0.49713 -0.10622 -0.03847
H 52.55650 50.01415 50.90278 -0.32742 0.02351 -0.38903
H 52.70482 49.94964 49.35426 -0.54571 0.08327 0.48224
O 49.89624 47.91271 50.01616 -0.59742 0.15405 -0.05695
H 49.32461 47.14093 49.86792 -0.19018 0.49009 0.10403
H 50.75650 47.54215 49.89294 0.96670 -0.17893 -0.03355
O 49.88932 52.09806 50.00254 1.27060 -0.16830 0.08925
H 50.76583 52.53965 50.09718 -0.81518 -0.37385 -0.14450
H 49.24676 52.73389 50.31348 -0.31215 0.10030 0.01603
19
Lattice="100.000000 0.000000 0.000000 0.000000 100.000000 0.000000 0.000000 0.000000 100.000000" energy=-823.84235268 Properties=species:S:1:pos:R:3:forces:R:3
Mg 49.98432 49.98696 50.02534 -0.07122 0.30608 -0.34728
O 49.89550 50.03179 52.01594 0.07609 0.03580 0.15233
H 50.01419 49.19474 52.47742 -0.04155 0.02011 0.02932
H 49.91847 50.71904 52.70260 -0.07745 -0.14768 -0.37472
O 47.94353 50.01804 49.83157 0.07160 -0.14631 0.42015
H 47.35903 49.97063 50.61464 0.26023 0.10228 -0.69946
H 47.41054 50.06275 49.02433 0.05679 0.01076 0.37036
O 50.08765 50.03320 47.85715 0.05591 -0.33181 0.64610
H 50.22895 49.20573 47.39004 0.03190 -0.24786 0.11604
H 50.08047 50.68315 47.16068 -0.06435 0.53900 -0.18814
O 52.05237 49.96370 50.13860 0.18776 0.51149 0.43389
H 52.59341 50.06012 50.95525 -0.43230 -0.15554 -0.75621
H 52.52656 50.43262 49.43482 -0.04280 -0.30796 0.21919
O 50.05322 47.98142 49.94127 -0.78554 -0.85964 0.19487
H 49.22490 47.45626 49.82847 0.68127 0.63569 -0.02046
H 50.69055 47.30710 50.23339 0.00881 0.48323 -0.17927
O 49.97273 52.10528 50.03107 0.95189 0.19515 -0.37415
H 50.85436 52.53272 49.86203 -1.28515 -0.31542 0.23377
H 49.27558 52.75627 49.83676 0.41812 -0.32737 0.12368
19
Lattice="100.000000 0.000000 0.000000 0.000000 100.000000 0.000000 0.000000 0.000000 100.000000" energy=-823.77224332 Properties=species:S:1:pos:R:3:forces:R:3
Mg 50.01887 49.98343 50.01279 0.01808 0.10320 -0.08813
O 49.89876 50.00941 52.06968 -0.02824 0.29954 0.38931
H 49.78347 49.20562 52.62675 0.11432 1.04667 -0.29755
H 49.91572 50.84369 52.61307 -0.07570 -1.36933 -0.50911
O 47.91306 49.98199 49.86218 -0.13182 -0.08642 -0.24386
H 47.25261 49.94715 50.56555 0.24041 0.04088 0.12158
H 47.37695 49.94354 49.05239 0.38762 0.04066 0.15214
O 50.14146 49.98874 47.89028 0.04874 -1.60481 2.21262
H 50.19515 49.18756 47.36328 -0.00177 0.23850 -0.32239
H 50.08685 50.76977 47.40083 -0.07324 1.37327 -1.35581
O 52.09251 50.01576 50.13894 -0.34238 -0.09570 -0.89236
H 52.57374 50.03971 50.96852 0.27212 -0.01007 -0.14114
H 52.69773 49.94059 49.36459 -0.41498 0.09836 0.99029
O 50.02905 47.91135 49.99867 -2.25448 1.09505 -0.21398
H 49.20299 47.37392 49.93920 0.87644 0.47123 0.05779
H 50.74793 47.33277 50.08546 1.35627 -1.13728 0.15873
O 49.97486 52.08312 50.01938 0.75625 0.98736 -0.01765
H 50.71986 52.74621 50.07123 -0.79222 -1.10363 -0.04005
H 49.20287 52.65576 49.89121 0.04457 -0.38749 0.03956
19
Lattice="100.000000 0.000000 0.000000 0.000000 100.000000 0.000000 0.000000 0.000000 100.000000" energy=-823.84906491 Properties=species:S:1:pos:R:3:forces:R:3
Mg 49.88719 50.01172 49.98712 0.64337 -0.14115 -0.05650
O 49.91348 49.99700 52.02835 0.02923 -0.27097 0.31748
H 49.97306 49.15024 52.51125 -0.05261 0.57332 -0.21970
H 49.92107 50.70660 52.69744 -0.02523 -0.38250 -0.40250
O 47.90125 49.99280 49.87414 -0.01271 -0.09919 1.27541
H 47.22878 49.95145 50.60062 0.69509 0.06416 -0.92227
H 47.45997 50.12358 49.04308 -0.41085 0.03772 -0.36408
O 50.11350 49.98897 47.94913 -0.08799 -0.87589 0.46599
H 50.25691 49.19700 47.39944 -0.01873 0.34061 0.38041
H 50.08658 50.72552 47.35350 0.01961 0.56494 -0.41491
O 52.12020 49.99792 50.09265 -0.22521 0.31897 -0.89640
H 52.59452 50.07066 50.91350 0.21496 -0.03905 0.49439
H 52.76749 50.25819 49.40315 -0.60206 -0.29453 0.40714
O 50.04207 47.88356 49.95141 -1.87319 0.43800 -0.50284
H 49.23917 47.31485 49.82508 0.88529 0.66520 0.03189
H 50.65164 47.34848 50.42391 0.89608 -0.56506 0.46582
O 50.00497 52.05539 50.06537 -0.14109 -0.09396 -0.09594
H 50.78781 52.61255 50.13411 0.05058 -0.11239 0.00896
H 49.26305 52.66677 49.97502 0.01546 -0.12822 0.02764
19
Lattice="100.000000 0.000000 0.000000 0.000000 100.000000 0.000000 0.000000 0.000000 100.000000" energy=-823.79874816 Properties=species:S:1:pos:R:3:forces:R:3
Mg 50.02910 49.99676 50.01076 -0.04441 -0.06538 0.00503
O 49.87088 50.00218 52.08313 0.01088 -0.12137 -0.39919
H 49.79378 49.26490 52.70099 0.01759 0.07587 -0.09537
H 49.85587 50.80878 52.60457 0.00976 0.06192 0.03911
O 47.91235 49.96820 49.87954 0.05623 0.02107 0.66437
H 47.26556 49.96789 50.61000 0.48926 0.00134 -0.23047
H 47.36936 49.96157 49.09344 -0.03708 -0.01148 -0.41655
O 50.15449 49.97248 47.89835 -0.11367 3.26017 1.32830
H 50.11510 49.22673 47.36146 -0.10920 -1.56014 -1.45796
H 50.03949 50.82475 47.37056 0.20507 -1.67157 0.67096
O 52.10208 50.03776 50.14389 -1.20312 -0.05404 1.11239
H 52.68570 49.94898 50.91767 -0.08728 0.05760 -0.63869
H 52.56549 50.05736 49.32432 0.78273 -0.01584 -0.56697
O 50.02192 47.88921 50.00698 1.41129 1.37524 0.09446
H 49.26186 47.35384 49.99171 -1.35480 -0.92935 -0.05480
H 50.77343 47.31690 50.20515 -0.04584 0.07345 -0.04940
O 49.98273 52.09543 50.00144 0.23248 -0.87483 -0.00096
H 50.73393 52.68583 50.04930 0.29574 0.10732 0.02809
H 49.21278 52.64859 49.93258 -0.51562 0.27001 -0.03234
19
Lattice="100.000000 0.000000 0.000000 0.000000 100.000000 0.000000 0.000000 0.000000 100.000000" energy=-823.27531424 Properties=species:S:1:pos:R:3:forces:R:3
Mg 49.99374 50.17600 50.06682 0.26912 -0.37005 0.70613
O 49.54008 49.86212 52.06303 0.22211 0.22484 -0.91229
H 49.18055 49.13165 52.55136 0.01369 -0.69225 0.17387
H 49.33858 50.61549 52.59544 0.05029 0.82520 0.52237
O 48.06269 50.36636 49.83826 -0.65597 -0.48917 0.42932
H 47.60272 50.99970 49.28580 -0.30524 0.04339 -0.01937
H 47.41033 49.92622 50.42450 0.38176 0.43064 -0.48709
O 50.04504 49.93977 48.11846 0.51901 0.41823 0.46199
H 49.26816 49.55248 47.73864 -0.30116 -0.07467 -0.74980
H 50.61116 50.35811 47.46385 -0.16565 -0.07644 -0.28110
O 51.94317 49.71747 50.07373 -0.79538 0.83698 0.24266
H 52.12170 48.91475 49.60246 0.57336 -0.36945 -0.19758
H 52.73591 50.25075 50.17165 0.15912 -0.17861 0.05109
O 49.71463 48.26109 50.05235 -0.32700 -0.32668 -0.59789
H 49.01720 48.08346 49.39082 0.62239 -0.45315 0.59806
H 50.39631 47.57303 50.04218 -0.52755 -0.01353 0.01132
O 50.02493 52.06085 50.11492 1.65808 0.18843 0.24083
H 50.61193 52.82776 50.10959 1.35928 -0.51456 0.51415
H 49.34666 52.61765 49.83688 -2.75026 0.59086 -0.70666
19
Lattice="100.000000 0.000000 0.000000 0.000000 100.000000 0.000000 0.000000 0.000000 100.000000" energy=-823.54874363 Properties=species:S:1:pos:R:3:forces:R:3
Mg 50.09073 50.00031 49.96402 -0.06900 -0.14697 0.97737
O 49.90164 49.90761 52.04182 -0.17557 0.90705 -0.45309
H 50.23956 49.29180 52.68315 0.16090 -0.44227 0.24496
H 49.65292 50.69613 52.54900 -0.00330 -0.20168 -0.21728
O 48.07442 50.02472 49.78313 -0.73366 -0.20394 -0.50341
H 47.36125 50.00891 50.44952 0.58731 0.05961 -0.14606
H 47.59192 49.90965 48.93592 0.37904 0.06679 0.61514
O 50.25129 50.05031 48.00446 0.07515 -0.18904 0.55801
H 50.45069 49.52684 47.22340 -0.01710 0.02466 -0.14193
H 49.77355 50.83913 47.76956 -0.18231 0.12169 -0.68263
O 52.04569 49.91356 50.11257 0.72781 0.17063 -0.41011
H 52.69166 50.23860 50.75229 -0.27072 0.02607 0.22269
H 52.61275 49.70137 49.35037 -0.40235 -0.02841 0.17026
O 50.17959 48.02762 50.19390 -1.46347 0.07881 -0.76599
H 49.40209 47.49985 49.89650 0.80301 0.36177 0.38925
H 50.90318 47.43232 50.33045 0.47313 -0.46271 0.12237
O 49.97044 52.07540 50.01825 0.37323 -0.97746 1.90470
H 50.42996 52.84035 50.40475 -0.28521 -0.21551 -0.59720
H 49.85489 52.07231 49.09630 0.02313 1.05089 -1.28704
19
Lattice="100.000000 0.000000 0.000000 0.000000 100.000000 0.000000 0.000000 0.000000 100.000000" energy=-823.35753445 Properties=species:S:1:pos:R:3:forces:R:3
Mg 50.23111 49.88874 50.01959 -1.08177 0.81671 0.58917
O 49.92376 49.87919 51.94459 0.99467 -1.05491 0.77982
H 50.54784 49.24566 52.36689 -0.33679 0.65944 -0.41146
H 49.31410 50.03922 52.66037 -0.51451 0.42443 0.08448
O 48.11336 49.92624 50.06659 0.21134 -0.87713 -0.69344
H 47.52464 50.23833 50.73978 -0.44985 0.23815 0.42147
H 47.62987 49.28251 49.51684 0.05816 0.45223 0.39949
O 49.78011 49.90861 48.22237 1.15360 -0.83915 1.11327
H 49.67183 49.07375 47.78928 -0.22256 -0.20809 -0.86199
H 49.45820 50.65403 47.76634 -0.54141 0.79495 -1.13090
O 51.98251 50.46859 50.37967 1.40739 0.03887 0.19175
H 52.37727 51.35575 50.56778 -0.23970 -1.15780 -0.29352
H 52.70277 49.79691 50.40833 -0.48879 0.83175 -0.06874
O 50.42434 47.98511 50.18170 0.10942 -1.30863 0.15337
H 50.73765 47.35510 49.49907 -0.16816 0.45830 0.43844
H 50.18784 47.41673 50.95452 0.18252 0.56941 -0.80873
O 49.89204 51.90324 49.97595 1.29407 0.35385 0.99459
H 50.53446 52.42354 50.54551 -1.42054 -0.49035 -1.10173
H 49.45135 52.46814 49.33944 0.05291 0.29797 0.20464
19
Lattice="100.000000 0.000000 0.000000 0.000000 100.000000 0.000000 0.000000 0.000000 100.000000" energy=-823.50999872 Properties=species:S:1:pos:R:3:forces:R:3
Mg 49.84558 50.05489 49.95335 1.04813 -0.17365 -0.38878
O 49.88784 49.76135 51.87322 -1.02869 0.71142 0.65860
H 50.28950 49.50733 52.71387 0.15791 0.01472 -0.16794
H 48.97245 50.02744 52.09498 0.79136 -0.09432 0.16666
O 47.87475 49.92642 49.94587 -0.16807 0.34551 -0.40321
H 47.61513 49.61280 50.80805 -0.49716 -0.22753 0.09945
H 47.06505 50.08825 49.41807 0.60439 -0.13055 0.29488
O 50.04560 50.11186 48.00204 -0.23560 -1.40004 1.12446
H 50.06523 49.31548 47.44386 0.04199 0.67548 -0.02480
H 50.09586 50.91828 47.52480 0.09272 0.67638 -0.88802
O 52.07042 49.88594 50.00147 -0.02815 0.24995 0.00530
H 52.44756 49.88742 50.89063 -0.06360 -0.02981 -0.16470
H 52.81410 50.09626 49.40718 -0.51603 -0.11758 0.20972
O 49.96288 48.01080 50.12882 -0.07004 -0.40614 -0.46135
H 49.17658 47.43653 50.09486 0.65829 0.05698 -0.06215
H 50.77695 47.47116 50.10774 -0.66315 0.25165 -0.04051
O 49.94307 52.11059 49.99945 0.71163 0.45615 0.34798
H 50.62909 52.81050 50.14578 -0.50238 -0.94877 -0.25662
H 49.13002 52.56003 50.22895 -0.33354 0.09016 -0.04899
19
Lattice="100.000000 0.000000 0.000000 0.000000 100.000000 0.000000 0.000000 0.000000 100.000000" energy=-823.55622484 Properties=species:S:1:pos:R:3:forces:R:3
Mg 49.95896 50.06173 50.13744 0.70013 -0.06526 -0.11308
O 50.32980 50.25986 52.03132 -0.09964 -0.18806 -0.02807
H 51.03425 49.98565 52.63600 -0.17767 0.05495 -0.19978
H 49.58817 50.55382 52.56596 0.04652 -0.03380 0.20102
O 47.83690 49.75201 50.14131 -0.06074 0.03158 -0.29585
H 47.32428 50.53104 49.85772 -0.01004 -0.60487 0.22472
H 47.25182 48.96451 50.15783 0.30245 0.81104 0.11242
O 49.92959 49.97258 48.08157 -0.06766 0.35733 -0.10485
H 49.27446 49.33594 47.81954 -0.43132 -0.44395 -0.12694
H 50.26155 50.28580 47.22919 0.27453 0.19134 0.24753
O 52.00050 50.26710 49.80179 0.10613 -0.13940 0.13789
H 52.84597 49.85594 50.10089 -0.85528 0.63431 -0.43044
H 52.15885 51.04922 49.24837 0.34045 -0.49157 0.39072
O 49.99269 48.08041 50.04415 -0.27237 -0.08157 -0.23979
H 49.18926 47.80754 49.59226 -0.06138 -0.03500 0.11470
H 50.52914 47.28139 50.02164 0.36910 0.13138 0.25947
O 49.72613 52.07030 50.14807 -1.08183 -0.18105 0.70965
H 49.68688 52.59684 49.36013 0.26341 0.38288 -0.67553
H 49.03563 52.48244 50.71400 0.71522 -0.33025 -0.18379
19