19
Lattice="100.000000 0.000000 0.000000 0.000000 100.000000 0.000000 0.000000 0.000000 100.000000" energy=-823.50402546 Properties=species:S:1:pos:R:3:forces:R:3
Mg 50.04385 49.99055 50.03137 -0.19151 -0.07941 -0.25112
O 49.86934 50.00063 52.04628 0.09397 0.74108 -0.81052
H 49.80256 49.28645 52.65107 -0.04999 -1.23231 0.53946
H 49.77858 50.76277 52.61796 -0.00208 0.50536 -0.04675
O 47.91578 49.98292 49.85797 0.34997 0.07208 1.84668
H 47.24632 49.98719 50.58175 0.74982 -0.00864 -0.50797
H 47.40353 49.95556 49.07700 -0.58535 -0.04889 -1.30333
O 50.16154 49.95126 47.91562 0.04243 5.37314 2.14821
H 50.14072 49.26723 47.35618 -0.09931 -3.83865 -2.86819
H 50.15050 50.77864 47.31941 0.03395 -1.49741 1.25475
O 52.08637 49.98281 50.14952 0.90259 0.10766 -2.11359
H 52.59319 50.05453 50.94822 0.26075 0.02665 0.56163
H 52.77920 50.03269 49.39347 -1.57688 -0.12840 1.54371
O 49.99374 47.92392 50.02414 2.08170 -0.73192 0.15338
H 49.22655 47.33691 49.95913 0.52241 0.01744 0.03240
H 50.88456 47.38133 50.08152 -2.55362 1.17055 -0.18021
O 49.99045 52.07042 49.99589 -0.39194 -0.96861 0.00808
H 50.74038 52.65034 50.03008 0.44468 0.42833 0.00774
H 49.19284 52.60386 49.96342 -0.03158 0.09197 -0.01435
19
Lattice="100.000000 0.000000 0.000000 0.000000 100.000000 0.000000 0.000000 0.000000 100.000000" energy=-823.56085874 Properties=species:S:1:pos:R:3:forces:R:3
Mg 50.02586 50.01165 50.05225 -0.19029 -0.12615 -0.37181
O 49.87416 49.98640 52.05482 0.01442 -0.37542 0.02188
H 49.85748 49.16262 52.58825 -0.01731 0.86996 -0.26322
H 49.78470 50.76692 52.62251 0.02487 -0.46004 -0.01537
O 47.94776 50.00946 49.83682 -0.23778 -0.19450 -1.17765
H 47.32921 50.12606 50.55070 -0.20326 0.06958 0.49351
H 47.36594 49.88632 49.04136 0.90016 0.12936 0.79626
O 50.13603 49.97112 47.94073 -0.13608 -3.80670 -0.02565
H 50.13886 49.09887 47.33991 -0.01650 2.54718 1.65499
H 50.24544 50.69907 47.37742 0.16325 1.27316 -1.10147
O 52.10241 49.96547 50.15188 -1.71862 -0.49829 3.37977
H 52.61915 49.91773 51.00884 -0.57128 0.10008 -1.44865
H 52.64726 50.11664 49.43801 1.84240 0.42065 -1.96067
O 49.98318 47.92326 50.05905 -2.81679 2.30285 0.20850
H 49.27459 47.28200 50.13496 -0.39618 0.01541 -0.00197
H 50.73495 47.43376 50.01648 3.28345 -1.88375 -0.21962
O 49.98237 52.06273 49.98601 0.25578 0.42933 0.14570
H 50.77706 52.62826 50.03695 -0.38695 -0.40516 -0.05383
H 49.23766 52.68846 50.00726 0.20672 -0.40755 -0.06069
19
Lattice="100.000000 0.000000 0.000000 0.000000 100.000000 0.000000 0.000000 0.000000 100.000000" energy=-823.60333469 Properties=species:S:1:pos:R:3:forces:R:3
Mg 50.00713 50.03066 50.06776 -0.12036 -0.19260 -0.41304
O 49.87939 49.96967 52.05761 0.01151 0.55684 -1.11431
H 49.90596 49.14370 52.51864 -0.00450 -0.43820 0.60069
H 49.79257 50.71407 52.65370 -0.00225 -0.05301 0.33754
O 47.98225 50.03194 49.80978 0.91244 0.39726 1.56014
H 47.42369 50.25334 50.57680 0.11061 -0.16934 -0.57399
H 47.44403 49.81416 49.07298 -0.69649 -0.22225 -0.81490
O 50.10684 49.96741 47.96738 0.33772 4.30868 1.85362
H 50.12896 49.20114 47.50823 0.05690 -3.38321 -2.11347
H 50.33408 50.71415 47.35141 -0.35251 -0.94554 0.71673
O 52.10090 49.94650 50.17107 -0.49392 0.90073 -3.10524
H 52.62786 49.82010 50.92526 1.09704 -0.17039 1.16409
H 52.67770 50.23155 49.37335 -1.03383 -0.67839 1.88510
O 49.96062 47.93711 50.09722 1.87735 -1.56420 -0.18754
H 49.29537 47.26259 50.32503 0.19837 0.51264 -0.15799
H 50.82037 47.37285 49.95248 -2.00713 1.46164 0.29456
O 49.97784 52.05763 49.97439 0.23382 -0.68307 0.11290
H 50.78615 52.56099 50.02576 0.46939 0.14472 -0.00869
H 49.28913 52.71051 50.03885 -0.59417 0.21771 -0.03619
19
Lattice="100.000000 0.000000 0.000000 0.000000 100.000000 0.000000 0.000000 0.000000 100.000000" energy=-823.63132872 Properties=species:S:1:pos:R:3:forces:R:3
Mg 49.98699 50.04803 50.08112 -0.01062 -0.23817 -0.40981
O 49.88307 49.95709 52.04870 -0.03550 -0.26314 0.54137
H 49.94699 49.11468 52.53530 -0.01176 0.37969 -0.36086
H 49.80336 50.62524 52.74589 0.03321 -0.02093 -0.28723
O 48.02578 50.05380 49.79048 0.21512 -0.33598 -0.46137
H 47.51309 50.36352 50.53736 -0.44702 -0.06870 -0.16828
H 47.46380 49.72826 49.05273 0.34883 0.41490 0.85813
O 50.07949 49.98571 48.00631 0.11782 -2.88512 -0.44507
H 50.10736 49.06772 47.51053 -0.12344 2.37747 1.21821
H 50.37633 50.62834 47.37618 0.10713 0.44461 -0.40895
O 52.09065 49.93767 50.17309 -0.28442 -1.23197 3.04731
H 52.76101 49.70874 50.90240 -1.45160 0.29795 -1.10128
H 52.63128 50.28739 49.52329 1.33026 0.99628 -2.03342
O 49.95230 47.93962 50.13832 -2.03010 2.09251 0.59333
H 49.32376 47.30658 50.47814 -0.29844 -0.24586 0.07977
H 50.70989 47.49511 49.90400 2.41071 -1.49932 -0.76108
O 49.97992 52.04622 49.96375 0.11681 0.16529 0.23229
H 50.83538 52.50585 49.98782 -0.47836 -0.01783 -0.01080
H 49.26969 52.70902 50.05725 0.49137 -0.36168 -0.12226
19
Lattice="100.000000 0.000000 0.000000 0.000000 100.000000 0.000000 0.000000 0.000000 100.000000" energy=-823.65353898 Properties=species:S:1:pos:R:3:forces:R:3
Mg 49.96696 50.06254 50.09238 0.22428 -0.29882 -0.31156
O 49.88660 49.94314 52.04713 -0.07288 0.21871 0.31033
H 49.98914 49.10969 52.50560 0.07363 -0.46379 -0.14199
H 49.81508 50.55204 52.79158 -0.02397 0.37808 -0.22668
O 48.07581 50.07772 49.76935 0.13493 0.09373 0.49301
H 47.51377 50.44731 50.45208 -0.19256 0.05084 0.07697
H 47.49981 49.68679 49.11729 -0.15123 -0.14126 -0.31517
O 50.05506 49.98627 48.04192 0.61111 2.45755 0.79809
H 50.06243 49.16147 47.64468 -0.10452 -2.28536 -1.08004
H 50.41168 50.60564 47.37242 -0.33652 -0.28667 0.49911
O 52.08070 49.92379 50.18997 -0.25823 1.86923 -3.00695
H 52.71394 49.62656 50.78864 1.22934 -0.87043 1.69369
H 52.67025 50.40039 49.50112 -1.35831 -0.91623 1.21471
O 49.93326 47.95458 50.17972 1.58274 -0.44644 -0.71361
H 49.34309 47.32465 50.62205 0.43822 0.07249 -0.34452
H 50.76387 47.48822 49.80964 -1.93774 0.66981 0.91926
O 49.98501 52.03204 49.95612 0.39233 -1.05803 0.10745
H 50.83220 52.46918 49.94087 0.20292 0.38249 0.01595
H 49.29673 52.67468 50.04741 -0.45354 0.57411 0.01194
19
Lattice="100.000000 0.000000 0.000000 0.000000 100.000000 0.000000 0.000000 0.000000 100.000000" energy=-823.67699203 Properties=species:S:1:pos:R:3:forces:R:3
Mg 49.94785 50.07068 50.10197 0.57066 -0.28001 -0.15553
O 49.89183 49.93354 52.05165 -0.01349 -0.17644 -0.04640
H 50.02720 49.05243 52.42633 -0.03210 0.32360 0.02707
H 49.82344 50.55291 52.78411 0.01319 0.02329 0.01931
O 48.12350 50.10034 49.75594 -1.80296 0.00102 0.38003
H 47.47646 50.52515 50.35388 0.56118 -0.13740 -0.19786
H 47.52645 49.63569 49.14072 0.60278 0.13115 0.08844
O 50.03413 49.99567 48.08548 0.32986 -2.23958 -0.77828
H 50.00136 49.05828 47.67284 0.02368 2.07276 0.76948
H 50.40143 50.56996 47.40668 -0.08569 0.00138 0.01449
O 52.07167 49.92232 50.18328 -0.56377 -1.95082 2.51401
H 52.71146 49.46773 50.83216 -1.17398 1.00221 -1.34711
H 52.55340 50.42241 49.57926 1.34210 1.03517 -1.26487
O 49.92531 47.97455 50.21773 -0.85364 1.19531 0.41627
H 49.41526 47.34366 50.72596 -0.18569 -0.18369 0.05824
H 50.62483 47.51520 49.80799 1.11694 -0.85215 -0.65467
O 49.99927 52.01050 49.95110 -0.27284 0.61755 0.23175
H 50.82101 52.50776 49.90548 0.08463 -0.02230 0.01288
H 49.30592 52.69673 50.02929 0.33913 -0.56101 -0.08727
19
Lattice="100.000000 0.000000 0.000000 0.000000 100.000000 0.000000 0.000000 0.000000 100.000000" energy=-823.64981630 Properties=species:S:1:pos:R:3:forces:R:3
Mg 49.93722 50.07485 50.10805 0.87497 -0.27309 0.02721
O 49.89763 49.92486 52.05633 -0.09004 0.29726 -0.38321
H 50.06239 49.03165 52.36796 -0.00716 0.23742 0.39760
H 49.83548 50.55753 52.78254 0.05901 -0.31744 0.02972
O 48.15052 50.12578 49.74907 -0.71900 -0.50285 -0.20802
H 47.51992 50.60460 50.26820 -0.50950 0.38208 0.45781
H 47.62488 49.58006 49.14806 0.16882 0.10829 0.06952
O 50.01376 49.98762 48.12735 0.59047 0.46315 0.04221
H 49.93008 49.12058 47.75583 -0.08408 -0.58336 -0.41215
H 50.38510 50.55817 47.44081 -0.11625 -0.09953 0.11186
O 52.05480 49.90994 50.18837 -1.53918 2.48008 -2.80333
H 52.60672 49.44053 50.74162 1.80278 -1.20319 1.51009
H 52.58227 50.50948 49.57372 -0.62402 -1.18666 1.20976
O 49.91381 48.00231 50.25450 1.18869 -1.16879 -0.78131
H 49.45276 47.36032 50.81472 -0.03360 0.26441 -0.17128
H 50.60465 47.44628 49.77528 -1.10404 0.95471 0.72485
O 50.01347 51.99492 49.94788 1.05174 0.27012 0.06585
H 50.80866 52.54845 49.86725 -0.07878 -0.42025 0.06342
H 49.33480 52.65402 49.99537 -0.83083 0.29764 0.04938
19
Lattice="100.000000 0.000000 0.000000 0.000000 100.000000 0.000000 0.000000 0.000000 100.000000" energy=-823.68221323 Properties=species:S:1:pos:R:3:forces:R:3
Mg 49.93729 50.07401 50.11101 1.01645 -0.23346 0.19855
O 49.90147 49.92063 52.05615 -0.09894 0.28582 -0.32868
H 50.09216 49.04502 52.38708 0.05011 -0.06822 0.30341
H 49.85974 50.52678 52.79858 -0.00139 0.05039 0.12010
O 48.16398 50.14868 49.74360 -1.13229 0.74885 1.03316
H 47.51331 50.70741 50.22205 0.28890 -0.70578 -0.53565
H 47.72934 49.54410 49.15030 -0.48692 -0.05744 -0.11437
O 50.00082 49.98266 48.16963 0.52883 -1.04195 -1.33986
H 49.85797 49.08525 47.76765 0.22962 1.22789 0.32411
H 50.35384 50.55843 47.46095 -0.26011 -0.45602 0.48427
O 52.02446 49.90863 50.18170 0.60288 -1.43149 1.34883
H 52.65412 49.33857 50.73977 -1.30015 1.03707 -0.98378
H 52.60547 50.48495 49.70758 0.39551 0.47759 -0.43161
O 49.91008 48.02453 50.28919 -0.03443 -0.04126 -0.07487
H 49.45684 47.42207 50.88692 -0.20771 0.07901 0.06890
H 50.48123 47.45260 49.77721 0.26395 -0.09932 -0.26274
O 50.03444 51.98770 49.94397 -0.99787 0.35634 0.22659
H 50.80537 52.53440 49.85385 0.46707 0.35626 0.00019
H 49.26533 52.59850 49.97454 0.67651 -0.48429 -0.03654
19
Lattice="100.000000 0.000000 0.000000 0.000000 100.000000 0.000000 0.000000 0.000000 100.000000" energy=-823.64535953 Properties=species:S:1:pos:R:3:forces:R:3
Mg 49.94503 50.06844 50.11436 0.95012 -0.17506 0.32776
O 49.90445 49.92314 52.05480 0.17173 -0.34294 0.83341
H 50.12441 49.05834 52.44860 -0.12918 0.44947 -0.35536
H 49.89927 50.49925 52.83280 -0.10314 0.20057 -0.34446
O 48.16085 50.17287 49.74534 -0.50961 -0.99474 -0.44516
H 47.49383 50.72065 50.12146 -0.86950 0.38370 0.36706
H 47.74752 49.51347 49.15283 0.03091 0.60503 0.52499
O 49.99955 49.97098 48.20444 0.13194 -1.29365 -0.71399
H 49.77825 49.12971 47.75587 0.18901 0.56622 0.27161
H 50.29785 50.54408 47.50635 0.24109 0.42676 -0.30957
O 51.99915 49.90011 50.18305 -0.21729 2.10992 -1.51562
H 52.56443 49.33404 50.64499 0.96807 -1.43133 1.14791
H 52.64778 50.53405 49.77547 -0.97316 -0.60859 0.31971
O 49.90509 48.04461 50.32830 0.52175 -0.40365 -0.86082
H 49.41801 47.49747 50.95029 -0.01169 -0.12633 -0.10316
H 50.41591 47.45431 49.72816 -0.50893 0.39645 0.65444
O 50.05137 51.98462 49.94032 1.40384 -0.08814 0.07302
H 50.83983 52.56561 49.86236 -0.86000 -0.33102 0.13074
H 49.26178 52.50344 49.94925 -0.42595 0.65734 -0.00252
19
Lattice="100.000000 0.000000 0.000000 0.000000 100.000000 0.000000 0.000000 0.000000 100.000000" energy=-823.68481307 Properties=species:S:1:pos:R:3:forces:R:3
Mg 49.96264 50.06014 50.12358 0.68472 -0.11169 0.35199
O 49.90914 49.92446 52.06047 -0.18202 0.69461 -0.26726
H 50.14068 49.10309 52.46014 0.21766 -0.85604 0.31254
H 49.91010 50.53675 52.79365 -0.11156 0.50367 0.14524
O 48.14457 50.19220 49.74769 -1.74674 0.82275 0.75266
H 47.38232 50.74156 50.04572 0.76850 -0.38168 0.00902
H 47.72025 49.55093 49.18804 -0.11760 -0.44844 -0.30927
O 50.00876 49.95446 48.23300 0.41132 -0.19137 -1.98013
H 49.73234 49.16731 47.72751 0.21970 0.38038 0.31811
H 50.25822 50.59635 47.52628 -0.11134 -0.49958 0.80164
O 51.97081 49.90075 50.17630 0.81153 -0.96890 0.78992
H 52.52258 49.21469 50.66142 -0.87917 1.14786 -0.82204
H 52.59349 50.56016 49.85315 -0.03121 -0.12181 0.00960
O 49.90241 48.06433 50.36212 0.11380 -0.55772 -0.60843
H 49.37199 47.55148 50.99400 0.26714 0.03535 -0.44604
H 50.30063 47.46219 49.69577 -0.40618 0.30700 0.73016
O 50.07774 51.97836 49.93829 -1.28963 -0.31021 0.18893
H 50.78674 52.59232 49.87348 0.72854 0.73516 -0.00495
H 49.23963 52.47988 49.92304 0.65254 -0.17934 0.02832
19
Lattice="100.000000 0.000000 0.000000 0.000000 100.000000 0.000000 0.000000 0.000000 100.000000" energy=-823.68650461 Properties=species:S:1:pos:R:3:forces:R:3
Mg 49.98634 50.05133 50.13786 0.29425 -0.04177 0.26431
O 49.91438 49.92892 52.06987 0.21468 -0.17193 0.58801
H 50.19202 49.07994 52.48998 -0.32759 1.22680 -0.10571
H 49.90186 50.65565 52.72092 0.02658 -0.67546 -0.21872
O 48.10498 50.21387 49.75386 -0.56818 -1.08834 -0.58490
H 47.35467 50.73374 49.99398 -0.60320 0.69846 0.58394
H 47.69072 49.53636 49.17698 0.46160 0.37381 0.43514
O 50.02500 49.93738 48.24637 -0.48183 -1.93244 -1.27705
H 49.69115 49.18999 47.66935 0.58992 1.01689 0.86161
H 50.22992 50.62237 47.62746 0.31841 0.62958 -0.41572
O 51.94667 49.89787 50.17597 -0.74791 0.91933 -0.45824
H 52.40506 49.20010 50.60676 0.73183 -0.63495 0.38802
H 52.56377 50.58283 49.89722 0.10505 -0.25364 0.07476
O 49.89651 48.08430 50.39006 0.27600 0.21420 -0.70146
H 49.35220 47.59398 50.98820 -0.52173 -0.35910 0.56711
H 50.17712 47.45143 49.72751 0.19452 -0.16013 -0.20238
O 50.09808 51.97061 49.94163 1.09592 0.96866 0.00344
H 50.77570 52.68865 49.86572 -0.52027 -0.90121 0.16837
H 49.27725 52.44837 49.89229 -0.53803 0.17123 0.02947
19
Lattice="100.000000 0.000000 0.000000 0.000000 100.000000 0.000000 0.000000 0.000000 100.000000" energy=-823.65090645 Properties=species:S:1:pos:R:3:forces:R:3
Mg 50.01300 50.03991 50.15453 -0.09785 0.02401 0.10274
O 49.92098 49.93400 52.08367 -0.51555 1.05218 -1.28672
H 50.21103 49.18437 52.55534 0.41320 -0.92738 1.00876
H 49.89417 50.70575 52.63647 -0.00961 0.29090 0.58204
O 48.05206 50.23053 49.75152 -0.27959 1.23802 1.07282
H 47.29954 50.80053 50.02948 0.57309 -0.65080 -0.19450
H 47.72148 49.54483 49.19931 -0.61780 -0.62420 -0.49385
O 50.03881 49.90903 48.24679 0.55570 1.24596 -0.53505
H 49.69788 49.24171 47.66870 -0.09121 -0.38381 -0.60653
H 50.23808 50.71934 47.71319 -0.18230 -1.08908 0.43750
O 51.91638 49.89893 50.17427 1.26037 0.18059 0.21314
H 52.39408 49.14786 50.58819 -0.27422 0.73779 -0.44864
H 52.58313 50.58922 49.93889 -0.64167 -0.91165 0.26303
O 49.89132 48.10476 50.41400 -0.65933 -2.35685 -0.82888
H 49.28272 47.62424 51.03341 0.68671 0.70020 -0.59188
H 50.07404 47.39678 49.71564 -0.10790 1.27953 1.11496
O 50.12528 51.97463 49.94638 -1.27612 -0.38860 0.12444
H 50.74337 52.67474 49.86629 1.05722 0.80701 -0.00969
H 49.26596 52.42212 49.88160 0.20685 -0.22382 0.07632
19
Lattice="100.000000 0.000000 0.000000 0.000000 100.000000 0.000000 0.000000 0.000000 100.000000" energy=-823.57765814 Properties=species:S:1:pos:R:3:forces:R:3
Mg 50.03943 50.03164 50.16974 -0.46934 0.04195 -0.00336
O 49.92421 49.94448 52.09383 0.49063 -0.13023 1.71094
H 50.25302 49.24769 52.73771 -0.55859 1.06063 -1.05260
H 49.88397 50.76022 52.63143 -0.06852 -0.49953 -0.35414
O 47.99785 50.25475 49.75245 0.69615 -1.06347 -0.46735
H 47.28539 50.80702 50.05303 -0.61046 -0.00201 0.07326
H 47.68017 49.50668 49.19133 -0.11920 1.01335 0.72881
O 50.06308 49.88825 48.24474 -1.07747 -2.64452 -1.01100
H 49.67321 49.23825 47.55591 0.97004 1.48775 1.32108
H 50.22382 50.70547 47.82289 0.26254 1.00349 -0.84863
O 51.89040 49.90012 50.17569 0.19821 -0.79842 0.42780
H 52.38425 49.13890 50.50420 -0.18705 -0.07740 -0.03092
H 52.56547 50.52340 49.97597 0.64914 0.85122 -0.35332
O 49.87768 48.11107 50.42862 0.25662 1.21549 -0.00085
H 49.27993 47.72960 51.04177 -0.80533 -0.42602 0.97132
H 50.00698 47.45674 49.78049 0.44123 -1.18473 -1.26623
O 50.14480 51.97750 49.95868 0.78323 0.53074 -0.00460
H 50.80930 52.70652 49.87055 -0.85876 -0.71702 0.16038
H 49.26175 52.34026 49.87798 0.00692 0.33872 -0.00060
19
Lattice="100.000000 0.000000 0.000000 0.000000 100.000000 0.000000 0.000000 0.000000 100.000000" energy=-823.49150220 Properties=species:S:1:pos:R:3:forces:R:3
Mg 50.06275 50.02584 50.18240 -0.79774 0.00237 -0.09766
O 49.92715 49.95834 52.11852 -0.41743 1.14649 -0.55155
H 50.24078 49.40900 52.80547 0.50711 -1.29829 0.84015
H 49.86694 50.79100 52.58555 -0.22805 0.58487 -0.05655
O 47.95267 50.27019 49.75384 0.30881 0.95284 0.83234
H 47.19897 50.79345 50.07782 0.33868 -0.20982 -0.01316
H 47.57438 49.56736 49.25584 -0.44952 -0.78736 -0.53923
O 50.08407 49.85220 48.23575 0.90046 2.57202 0.78763
H 49.73342 49.35926 47.54327 -0.78902 -1.37591 -1.62989
H 50.22506 50.76190 47.84930 -0.07044 -1.26184 0.46442
O 51.87288 49.89492 50.18189 2.43179 0.81534 -0.17364
H 52.35791 49.09676 50.42608 -0.22452 -0.00004 -0.02010
H 52.61510 50.53654 49.96566 -1.26481 -0.87034 0.26709
O 49.86134 48.12286 50.43789 -0.57841 -1.90459 -0.91470
H 49.22575 47.80862 51.13741 0.92217 0.09373 -1.17197
H 50.00387 47.39998 49.72001 -0.46669 1.42718 1.84244
O 50.16582 51.98116 49.97514 -0.93209 -1.23323 0.15939
H 50.77559 52.68627 49.89867 0.79068 1.07438 -0.03693
H 49.27188 52.31572 49.86711 0.01903 0.27222 0.01192
19
Lattice="100.000000 0.000000 0.000000 0.000000 100.000000 0.000000 0.000000 0.000000 100.000000" energy=-823.37327102 Properties=species:S:1:pos:R:3:forces:R:3
Mg 50.07948 50.02144 50.19517 -0.96196 -0.01530 -0.15976
O 49.92288 49.98656 52.14529 0.24903 0.18703 0.98607
H 50.26197 49.42575 52.88986 -0.41211 0.69788 -0.86686
H 49.80604 50.88333 52.50422 0.04381 -0.49134 0.01164
O 47.91198 50.28879 49.76304 -0.67342 -0.92056 -0.44242
H 47.14903 50.76377 50.11147 0.22114 0.27892 0.27989
H 47.44040 49.57174 49.26656 0.80814 0.60668 0.40962
O 50.10918 49.83218 48.22886 -1.37847 -2.39934 -1.99445
H 49.71599 49.35309 47.38460 1.02144 0.93154 2.28685
H 50.22323 50.69939 47.91113 0.35261 1.46581 -0.49304
O 51.88166 49.89052 50.18978 -0.41355 -2.24332 0.75290
H 52.29062 49.00876 50.34445 -0.22105 0.85940 -0.15421
H 52.54775 50.48096 49.95760 1.65503 1.30543 -0.52142
O 49.84131 48.12397 50.43619 0.48457 2.85214 0.85871
H 49.24530 47.86868 51.10421 -1.01310 -0.59640 1.12677
H 49.94505 47.44779 49.84673 0.38622 -2.61192 -2.17417
O 50.18162 51.97684 49.99530 0.25393 1.11593 -0.16038
H 50.79468 52.75461 49.91738 -0.58379 -0.95579 0.18597
H 49.29708 52.34708 49.85964 0.18153 -0.06679 0.06829
19
Lattice="100.000000 0.000000 0.000000 0.000000 100.000000 0.000000 0.000000 0.000000 100.000000" energy=-823.36688057 Properties=species:S:1:pos:R:3:forces:R:3
Mg 50.08628 50.01768 50.20647 -0.93824 -0.00782 -0.22817
O 49.91899 50.02029 52.17878 -0.43204 0.53085 -1.28826
H 50.24496 49.48735 52.88506 0.29698 -0.27987 0.80466
H 49.75023 50.91852 52.46153 0.04411 0.08618 0.49413
O 47.87021 50.30015 49.76837 0.33768 0.84660 0.86749
H 47.14899 50.78815 50.20496 0.43564 -0.07406 -0.06147
H 47.41295 49.60708 49.32250 -0.31034 -0.79715 -0.58123
O 50.12525 49.80317 48.20272 1.39179 2.94543 2.77932
H 49.79923 49.38693 47.47769 -1.35654 -1.90385 -2.95010
H 50.27986 50.73997 47.93040 -0.08733 -0.96998 0.11008
O 51.89565 49.87699 50.20236 1.45075 1.93303 -0.49965
H 52.22187 48.99492 50.26321 0.62717 -0.64662 0.01892
H 52.63147 50.51194 49.92124 -1.16037 -1.39135 0.57270
O 49.82004 48.13609 50.43500 -0.97792 -2.96029 -0.53933
H 49.17441 47.85499 51.14422 0.95762 0.41607 -0.98511
H 49.90052 47.28056 49.83877 -0.10444 2.22674 1.42692
O 50.19811 51.98231 50.01408 -0.79036 -0.76123 0.01678
H 50.78398 52.71573 49.96230 0.96379 0.78419 0.05585
H 49.33261 52.36874 49.87055 -0.34797 0.02313 -0.01354
19
Lattice="100.000000 0.000000 0.000000 0.000000 100.000000 0.000000 0.000000 0.000000 100.000000" energy=-823.30707358 Properties=species:S:1:pos:R:3:forces:R:3
Mg 50.08497 50.01491 50.21653 -0.79429 0.05582 -0.29227
O 49.91039 50.06130 52.20047 0.02330 0.13545 0.36110
H 50.23710 49.53957 52.96144 -0.19045 0.38757 -0.54123
H 49.71149 50.94850 52.53325 0.09433 -0.29173 0.06978
O 47.83751 50.31273 49.78104 0.31934 -0.64931 -0.09008
H 47.20799 50.80985 50.32022 -0.05711 -0.30711 -0.24265
H 47.37261 49.57724 49.31584 0.27066 0.92856 0.56561
O 50.14832 49.79720 48.18972 -1.20854 -2.19639 -1.61498
H 49.78336 49.25119 47.35710 1.07380 1.70412 2.35736
H 50.32718 50.68359 47.92137 0.08761 0.59558 -0.63855
O 51.92262 49.87174 50.21547 -1.09495 -3.05925 0.71453
H 52.22733 48.91752 50.18306 -0.30723 1.45888 0.09456
H 52.62304 50.38638 49.93781 2.07047 1.48880 -0.72839
O 49.79128 48.12465 50.42512 0.10277 3.08230 1.24593
H 49.19200 47.88592 51.10674 -0.85242 -0.01094 1.19014
H 49.85353 47.35798 49.96702 0.63214 -3.29687 -2.46952
O 50.20434 51.98549 50.03164 0.22089 0.83633 -0.07766
H 50.86810 52.72423 50.03246 -0.78161 -0.84488 0.05350
H 49.33233 52.38202 49.86831 0.39129 -0.01693 0.04283
19
Lattice="100.000000 0.000000 0.000000 0.000000 100.000000 0.000000 0.000000 0.000000 100.000000" energy=-823.35369791 Properties=species:S:1:pos:R:3:forces:R:3
Mg 50.07640 50.01315 50.22404 -0.57801 0.09115 -0.33440
O 49.90178 50.10779 52.22040 -0.20732 0.35845 -0.05305
H 50.20304 49.61367 52.98291 0.25189 -0.49556 0.03435
H 49.67783 50.95149 52.62337 -0.09551 0.27280 -0.17359
O 47.81921 50.31798 49.79670 1.25286 0.17346 0.34830
H 47.23858 50.79637 50.38726 -0.32117 0.01616 0.05417
H 47.31999 49.64684 49.34277 -0.35681 -0.21555 -0.18196
O 50.16307 49.78251 48.16889 1.66061 3.41275 3.57881
H 49.87247 49.30905 47.48006 -1.61209 -2.68050 -3.55503
H 50.37366 50.67174 47.81443 -0.11626 -0.60886 0.16752
O 51.94833 49.84826 50.23079 1.64385 2.60175 -0.54214
H 52.22048 48.97365 50.11141 0.43455 -1.98837 -0.07735
H 52.77629 50.36305 49.92637 -1.71933 -0.71995 0.71883
O 49.76186 48.12180 50.42308 -0.30313 -2.52353 -0.78196
H 49.14279 47.93880 51.16376 0.57846 -0.06038 -0.74625
H 49.87350 47.22236 49.88156 -0.36197 2.46486 1.54431
O 50.20696 51.98884 50.05057 -0.54049 -0.99403 -0.02245
H 50.88632 52.64172 50.11568 0.60659 0.62749 0.10353
H 49.37882 52.42868 49.86392 -0.21672 0.26784 -0.08163
19
Lattice="100.000000 0.000000 0.000000 0.000000 100.000000 0.000000 0.000000 0.000000 100.000000" energy=-823.39227763 Properties=species:S:1:pos:R:3:forces:R:3
Mg 50.05974 50.01373 50.22747 -0.41509 0.14539 -0.36711
O 49.89294 50.15543 52.23910 -0.08968 0.03360 0.28140
H 50.19753 49.61046 52.98347 0.01014 0.07064 -0.38937
H 49.63019 50.98741 52.65499 0.04866 -0.06424 -0.15970
O 47.81633 50.32470 49.81993 -0.20948 -0.28758 0.34678
H 47.22772 50.76743 50.45639 0.31676 -0.12083 -0.29331
H 47.22781 49.70320 49.34886 0.49824 0.37881 0.16388
O 50.18659 49.78711 48.16519 -1.07900 -1.78486 -2.16042
H 49.83251 49.16342 47.37175 0.97567 1.74548 2.48848
H 50.42305 50.59405 47.70568 0.04219 0.13318 -0.02296
O 51.98620 49.83793 50.24463 -1.30434 -3.47382 0.04910
H 52.22601 48.86482 50.03481 -0.53564 1.92465 0.55333
H 52.74474 50.28849 49.99683 1.91390 1.45722 -0.51743
O 49.72902 48.10219 50.41338 -0.09700 3.59473 1.34037
H 49.14938 47.95321 51.14648 -0.49409 -0.36137 0.54811
H 49.87169 47.33813 49.96570 0.52237 -3.26540 -1.84501
O 50.20655 51.98545 50.07176 0.11359 0.59248 0.00482
H 50.95142 52.60899 50.21004 -0.53288 -0.49545 -0.07120
H 49.43096 52.53054 49.85536 0.31569 -0.22264 0.05024
19
Lattice="100.000000 0.000000 0.000000 0.000000 100.000000 0.000000 0.000000 0.000000 100.000000" energy=-823.44226142 Properties=species:S:1:pos:R:3:forces:R:3
Mg 50.03839 50.01456 50.22618 -0.29179 0.20800 -0.34301
O 49.88506 50.20446 52.25850 -0.08556 -0.20474 -0.60149
H 50.20410 49.58319 52.92541 -0.05260 0.34916 0.04691
H 49.59191 51.02842 52.66062 0.13524 -0.18172 0.24642
O 47.81314 50.32706 49.84800 0.71668 -0.19512 0.13630
H 47.25801 50.74544 50.50184 -0.15667 0.27856 0.29253
H 47.20770 49.78392 49.33895 0.07287 -0.12187 -0.23623
O 50.20361 49.77957 48.14627 1.76574 3.63328 3.26316
H 49.90197 49.18803 47.56566 -1.81222 -3.45389 -3.12289
H 50.49380 50.53761 47.61501 -0.05625 -0.09578 0.21444
O 52.01981 49.80745 50.25600 0.39589 3.94230 0.43614
H 52.18679 48.94760 50.03274 0.85936 -2.98891 -0.74815
H 52.84223 50.36037 50.05641 -1.41307 -1.03353 0.39531
O 49.69235 48.10285 50.40786 0.28284 -2.04425 -0.70813
H 49.11916 47.89574 51.16337 0.21928 -0.06480 -0.38145
H 49.89354 47.20255 49.93364 -0.52335 2.13737 1.14039
O 50.20564 51.98654 50.09372 0.12756 -0.36549 0.06645
H 50.97222 52.51985 50.30658 0.33134 0.01195 0.11117
H 49.53292 52.62182 49.86686 -0.51530 0.18948 -0.20787
19
Lattice="100.000000 0.000000 0.000000 0.000000 100.000000 0.000000 0.000000 0.000000 100.000000" energy=-823.48045391 Properties=species:S:1:pos:R:3:forces:R:3
Mg 50.01299 50.01777 50.22090 -0.21858 0.23926 -0.33938
O 49.88153 50.25114 52.27025 -0.10130 -0.23169 -1.01054
H 50.19683 49.60133 52.89658 0.08195 0.05103 0.34470
H 49.58504 51.04384 52.71526 0.02841 0.06307 0.32261
O 47.81764 50.32799 49.87433 0.39823 0.11403 0.59110
H 47.29667 50.78374 50.56256 0.17201 -0.34175 -0.57040
H 47.21388 49.85527 49.28829 0.07173 0.17894 0.16427
O 50.22548 49.78802 48.14481 -1.16155 -2.38392 -1.15609
H 49.84359 48.98644 47.54972 1.16891 2.59092 1.65605
H 50.55434 50.47116 47.55390 -0.12807 -0.15612 -0.08592
O 52.05170 49.79727 50.27010 -1.67989 -3.17400 -0.33776
H 52.24586 48.82576 49.98686 -0.08858 2.36262 0.64844
H 52.80686 50.32294 50.15679 1.46052 0.75724 -0.23652
O 49.65820 48.08883 50.39941 -0.63720 1.59725 1.27192
H 49.09778 47.82500 51.14351 -0.01094 0.23987 -0.04394
H 49.87304 47.28328 50.00483 0.65333 -1.75791 -1.16868
O 50.20458 51.98438 50.11689 -0.01500 0.56260 0.00647
H 51.01256 52.43784 50.40697 -0.23012 -0.20896 -0.09045
H 49.58540 52.70083 49.87921 0.23614 -0.50248 0.03414
19
Lattice="100.000000 0.000000 0.000000 0.000000 100.000000 0.000000 0.000000 0.000000 100.000000" energy=-823.55161697 Properties=species:S:1:pos:R:3:forces:R:3
Mg 49.98347 50.02311 50.21085 -0.10545 0.18461 -0.24952
O 49.87904 50.29634 52.27269 0.00182 -0.23991 0.34440
H 50.18678 49.65480 52.93490 -0.00931 0.09324 -0.39208
H 49.58812 51.04433 52.81472 0.01537 -0.03528 -0.31943
O 47.83136 50.32566 49.90648 0.75692 -0.49059 -0.42788
H 47.34245 50.79988 50.57027 -0.39529 0.19104 0.20080
H 47.21229 49.96677 49.24787 0.26414 0.24104 0.37699
O 50.24214 49.77902 48.13698 1.40270 2.98660 2.24596
H 49.89479 49.07649 47.70154 -1.49963 -2.91109 -1.91197
H 50.59887 50.39617 47.48516 -0.07376 -0.03474 0.10344
O 52.06698 49.76832 50.27981 0.06555 3.64657 0.82929
H 52.34502 48.95282 50.00445 0.87892 -2.99340 -0.91850
H 52.89830 50.33096 50.23526 -1.37197 -0.66610 0.16594
O 49.62308 48.08255 50.40314 0.78341 -1.69314 -1.01902
H 49.05706 47.78889 51.11611 -0.20844 0.01743 0.20483
H 49.91289 47.21096 49.94876 -0.52716 1.86113 0.84538
O 50.20438 51.98632 50.13839 0.50359 -0.66113 0.21987
H 51.03165 52.32110 50.51243 -0.29664 0.10886 -0.15318
H 49.64293 52.71628 49.89746 -0.18477 0.39485 -0.14531
19
Lattice="100.000000 0.000000 0.000000 0.000000 100.000000 0.000000 0.000000 0.000000 100.000000" energy=-823.57130747 Properties=species:S:1:pos:R:3:forces:R:3
Mg 49.95210 50.03185 50.19596 0.01706 0.06363 -0.17370
O 49.87432 50.33608 52.27730 -0.06946 -0.06755 0.09600
H 50.18886 49.70629 52.92883 0.22945 -0.47157 -0.13436
H 49.58900 51.05007 52.85837 -0.15329 0.30303 -0.33849
O 47.85654 50.32048 49.93729 0.32793 0.47104 0.92573
H 47.35206 50.85105 50.58605 0.39486 -0.34938 -0.38444
H 47.22908 50.10593 49.25411 -0.16638 -0.18047 -0.42435
O 50.26698 49.78290 48.14936 -1.26696 -2.22338 -0.95722
H 49.83328 48.95004 47.68241 1.13952 2.27919 1.17356
H 50.63745 50.31264 47.43261 -0.08407 -0.03332 0.22040
O 52.08079 49.75586 50.28879 -0.00121 -2.78267 -0.79710
H 52.49659 48.85804 49.98405 -1.16585 1.99084 0.71555
H 52.84480 50.30009 50.35876 0.66704 0.82399 0.16773
O 49.58867 48.06541 50.40459 -0.43698 0.78831 0.70530
H 48.98907 47.77149 51.11727 0.37969 0.03751 -0.51483
H 49.92931 47.30649 49.94841 0.13468 -0.55704 -0.16919
O 50.20857 51.98082 50.16030 -0.63772 0.23020 -0.34915
H 51.01619 52.26071 50.57988 0.34836 0.24421 0.14068
H 49.71230 52.78420 49.90317 0.34333 -0.56655 0.09790
19
Lattice="100.000000 0.000000 0.000000 0.000000 100.000000 0.000000 0.000000 0.000000 100.000000" energy=-823.66360228 Properties=species:S:1:pos:R:3:forces:R:3
Mg 49.92117 50.03819 50.17752 0.18568 -0.02606 -0.00294
O 49.86730 50.37201 52.28182 0.19681 -0.55998 -0.06033
H 50.23531 49.70315 52.88776 -0.21261 0.38581 -0.27524
H 49.56218 51.11021 52.82174 0.02245 -0.11499 -0.03776
O 47.88779 50.31644 49.97425 -0.25947 -0.17153 -0.89966
H 47.40741 50.87757 50.57601 -0.05626 0.25201 0.50081
H 47.25039 50.21997 49.23005 0.74542 -0.12457 0.45673
O 50.28559 49.77379 48.16066 0.37779 0.99610 0.85264
H 49.85272 49.03769 47.78491 -0.72467 -1.18047 -0.58612
H 50.66945 50.25180 47.41826 0.08995 0.19309 0.13614
O 52.09652 49.72594 50.29310 -0.54603 3.30434 1.04454
H 52.50545 48.94136 50.06638 1.14046 -2.22909 -0.65256
H 52.83145 50.37952 50.49153 -1.13989 -1.02358 -0.30756
O 49.54808 48.05765 50.40807 1.21779 0.22887 -1.24680
H 48.95502 47.75202 51.07157 -0.59066 -0.50858 0.60439
H 49.95009 47.29564 49.92891 -0.50614 0.61235 0.63316
O 50.20986 51.97885 50.18119 1.08562 0.11674 0.56707
H 51.02682 52.26658 50.64594 -0.59092 -0.40401 -0.36617
H 49.82227 52.80736 49.91204 -0.43529 0.25356 -0.36035
19
Lattice="100.000000 0.000000 0.000000 0.000000 100.000000 0.000000 0.000000 0.000000 100.000000" energy=-823.56252938 Properties=species:S:1:pos:R:3:forces:R:3
Mg 49.89396 50.04290 50.15858 0.40904 -0.15419 0.14475
O 49.85977 50.40358 52.28172 -0.14870 -0.11627 -1.56513
H 50.24525 49.74365 52.83782 0.19831 -0.31572 0.73527
H 49.54494 51.16241 52.76348 -0.04336 0.10923 0.49695
O 47.91979 50.30874 50.00752 0.52478 0.63915 1.17995
H 47.48958 50.93775 50.61874 0.28204 -0.43781 -0.23538
H 47.35215 50.28150 49.25869 -0.59380 -0.19096 -0.94879
O 50.30288 49.77131 48.18143 -1.35193 -1.62993 -0.46930
H 49.79137 48.97698 47.79568 1.09517 1.66257 0.63588
H 50.70766 50.22774 47.43483 -0.02426 -0.02519 0.16761
O 52.10500 49.71350 50.30307 -0.44154 -2.15013 -0.56084
H 52.58799 48.83711 50.09227 -0.82121 2.07325 0.51841
H 52.71385 50.37482 50.59616 0.69834 0.16388 0.13516
O 49.51810 48.06080 50.40651 -0.24591 -1.13379 0.29702
H 48.87405 47.67030 51.05801 0.80383 0.59328 -0.83104
H 49.93340 47.28158 49.95970 -0.41215 0.87862 0.51287
O 50.21804 51.98100 50.20569 -0.76387 0.33809 -0.62786
H 50.99330 52.23830 50.67502 0.87482 0.13942 0.49791
H 49.86217 52.82367 49.87200 -0.03961 -0.44351 -0.08343
19