19
Lattice="100.000000 0.000000 0.000000 0.000000 100.000000 0.000000 0.000000 0.000000 100.000000" energy=-823.49987793 Properties=species:S:1:pos:R:3:forces:R:3
Mg 50.04385 49.99055 50.03137 -0.19743 -0.06316 -0.24841
O 49.86934 50.00063 52.04628 0.08845 0.75276 -0.80418
H 49.80256 49.28645 52.65107 -0.04693 -1.22953 0.54629
H 49.77858 50.76277 52.61796 0.00005 0.49035 -0.05365
O 47.91578 49.98292 49.85797 0.36604 0.06974 1.85123
H 47.24632 49.98719 50.58175 0.74895 -0.00610 -0.50515
H 47.40353 49.95556 49.07700 -0.58771 -0.04847 -1.31217
O 50.16154 49.95126 47.91562 0.02449 5.32182 2.09277
H 50.14072 49.26723 47.35618 -0.09174 -3.80041 -2.81934
H 50.15050 50.77864 47.31941 0.03926 -1.48411 1.25990
O 52.08637 49.98281 50.14952 0.89590 0.11176 -2.12806
H 52.59319 50.05453 50.94822 0.26329 0.02124 0.56576
H 52.77920 50.03269 49.39347 -1.57261 -0.13465 1.55052
O 49.99374 47.92392 50.02414 2.10329 -0.78818 0.15786
H 49.22655 47.33691 49.95913 0.54122 0.02404 0.03049
H 50.88456 47.38133 50.08152 -2.59338 1.20242 -0.18414
O 49.99045 52.07042 49.99589 -0.39299 -0.97125 0.00830
H 50.74038 52.65034 50.03008 0.44542 0.43723 0.00632
H 49.19284 52.60386 49.96342 -0.03360 0.09452 -0.01434
19
Lattice="100.000000 0.000000 0.000000 0.000000 100.000000 0.000000 0.000000 0.000000 100.000000" energy=-823.55932617 Properties=species:S:1:pos:R:3:forces:R:3
Mg 50.02586 50.01165 50.05225 -0.18740 -0.12947 -0.36111
O 49.87416 49.98640 52.05482 0.01569 -0.37622 0.01876
H 49.85748 49.16262 52.58825 -0.01589 0.86154 -0.26472
H 49.78470 50.76692 52.62251 0.01872 -0.46080 -0.01184
O 47.94776 50.00946 49.83682 -0.23886 -0.19342 -1.18050
H 47.32921 50.12606 50.55070 -0.19618 0.07373 0.49486
H 47.36594 49.88632 49.04136 0.88884 0.12088 0.78977
O 50.13603 49.97112 47.94073 -0.13862 -3.89434 -0.09413
H 50.13886 49.09887 47.33991 -0.01954 2.61133 1.71614
H 50.24544 50.69907 47.37742 0.16935 1.29197 -1.09418
O 52.10241 49.96547 50.15188 -1.71651 -0.48908 3.37035
H 52.61915 49.91773 51.00884 -0.56397 0.08424 -1.43293
H 52.64726 50.11664 49.43801 1.83797 0.41570 -1.96637
O 49.98318 47.92326 50.05905 -2.81126 2.31042 0.21214
H 49.27459 47.28200 50.13496 -0.39091 0.01119 0.00057
H 50.73495 47.43376 50.01648 3.27661 -1.86957 -0.22296
O 49.98237 52.06273 49.98601 0.25708 0.44993 0.15166
H 50.77706 52.62826 50.03695 -0.39784 -0.41158 -0.06508
H 49.23766 52.68846 50.00726 0.21272 -0.40645 -0.06044
19
Lattice="100.000000 0.000000 0.000000 0.000000 100.000000 0.000000 0.000000 0.000000 100.000000" energy=-823.60839844 Properties=species:S:1:pos:R:3:forces:R:3
Mg 50.00713 50.03066 50.06776 -0.09904 -0.19625 -0.41347
O 49.87939 49.96967 52.05761 0.00289 0.55835 -1.11390
H 49.90596 49.14370 52.51864 -0.00266 -0.42730 0.60127
H 49.79257 50.71407 52.65370 -0.00990 -0.06669 0.34259
O 47.98225 50.03194 49.80978 0.91807 0.39873 1.55137
H 47.42369 50.25334 50.57680 0.11154 -0.16147 -0.55761
H 47.44403 49.81416 49.07298 -0.70197 -0.22998 -0.82621
O 50.10684 49.96741 47.96738 0.33921 4.25486 1.82947
H 50.12896 49.20114 47.50823 0.04525 -3.35505 -2.07346
H 50.33408 50.71415 47.35141 -0.34790 -0.92179 0.71560
O 52.10090 49.94650 50.17107 -0.49361 0.91280 -3.09875
H 52.62786 49.82010 50.92526 1.10399 -0.19051 1.17517
H 52.67770 50.23155 49.37335 -1.04101 -0.67941 1.87317
O 49.96062 47.93711 50.09722 1.88510 -1.56970 -0.17971
H 49.29537 47.26259 50.32503 0.20441 0.50884 -0.16572
H 50.82037 47.37285 49.95248 -2.01774 1.48274 0.28604
O 49.97784 52.05763 49.97439 0.23608 -0.68208 0.11473
H 50.78615 52.56099 50.02576 0.45990 0.13941 -0.02551
H 49.28913 52.71051 50.03885 -0.59259 0.22450 -0.03507
19
Lattice="100.000000 0.000000 0.000000 0.000000 100.000000 0.000000 0.000000 0.000000 100.000000" energy=-823.63830566 Properties=species:S:1:pos:R:3:forces:R:3
Mg 49.98699 50.04803 50.08112 0.02498 -0.25143 -0.41424
O 49.88307 49.95709 52.04870 -0.05366 -0.26631 0.55430
H 49.94699 49.11468 52.53530 -0.00847 0.38650 -0.35492
H 49.80336 50.62524 52.74589 0.02470 -0.02376 -0.28136
O 48.02578 50.05380 49.79048 0.23683 -0.33534 -0.46560
H 47.51309 50.36352 50.53736 -0.46006 -0.06543 -0.15445
H 47.46380 49.72826 49.05273 0.33671 0.40548 0.85494
O 50.07949 49.98571 48.00631 0.13234 -2.90169 -0.47739
H 50.10736 49.06772 47.51053 -0.13724 2.39147 1.23790
H 50.37633 50.62834 47.37618 0.10268 0.45450 -0.39868
O 52.09065 49.93767 50.17309 -0.31310 -1.23275 3.08306
H 52.76101 49.70874 50.90240 -1.44352 0.28389 -1.11476
H 52.63128 50.28739 49.52329 1.34780 0.99575 -2.05114
O 49.95230 47.93962 50.13832 -2.02805 2.11172 0.59396
H 49.32376 47.30658 50.47814 -0.29034 -0.25238 0.06895
H 50.70989 47.49511 49.90400 2.40622 -1.49522 -0.76151
O 49.97992 52.04622 49.96375 0.10998 0.17699 0.23302
H 50.83538 52.50585 49.98782 -0.48740 -0.02176 -0.02816
H 49.26969 52.70902 50.05725 0.49960 -0.36023 -0.12390
19
Lattice="100.000000 0.000000 0.000000 0.000000 100.000000 0.000000 0.000000 0.000000 100.000000" energy=-823.66210938 Properties=species:S:1:pos:R:3:forces:R:3
Mg 49.96696 50.06254 50.09238 0.24958 -0.28899 -0.32540
O 49.88660 49.94314 52.04713 -0.09530 0.21622 0.34216
H 49.98914 49.10969 52.50560 0.07772 -0.45641 -0.14456
H 49.81508 50.55204 52.79158 -0.02918 0.37721 -0.23109
O 48.07581 50.07772 49.76935 0.14055 0.09462 0.50094
H 47.51377 50.44731 50.45208 -0.19936 0.04348 0.07846
H 47.49981 49.68679 49.11729 -0.16154 -0.13877 -0.30406
O 50.05506 49.98627 48.04192 0.62579 2.46098 0.78740
H 50.06243 49.16147 47.64468 -0.10649 -2.28223 -1.08572
H 50.41168 50.60564 47.37242 -0.33859 -0.28473 0.50437
O 52.08070 49.92379 50.18997 -0.29766 1.88530 -3.01836
H 52.71394 49.62656 50.78864 1.26720 -0.89679 1.71269
H 52.67025 50.40039 49.50112 -1.35496 -0.92286 1.21358
O 49.93326 47.95458 50.17972 1.56204 -0.45283 -0.70092
H 49.34309 47.32465 50.62205 0.44318 0.08447 -0.35074
H 50.76387 47.48822 49.80964 -1.91562 0.66515 0.90416
O 49.98501 52.03204 49.95612 0.38843 -1.06962 0.10615
H 50.83220 52.46918 49.94087 0.19462 0.38403 -0.00086
H 49.29673 52.67468 50.04741 -0.45041 0.58176 0.01180
19
Lattice="100.000000 0.000000 0.000000 0.000000 100.000000 0.000000 0.000000 0.000000 100.000000" energy=-823.68518066 Properties=species:S:1:pos:R:3:forces:R:3
Mg 49.94785 50.07068 50.10197 0.57083 -0.29738 -0.16533
O 49.89183 49.93354 52.05165 -0.02791 -0.19175 -0.01595
H 50.02720 49.05243 52.42633 -0.03139 0.32094 0.01586
H 49.82344 50.55291 52.78411 0.00461 0.03909 0.02412
O 48.12350 50.10034 49.75594 -1.82717 -0.00126 0.39831
H 47.47646 50.52515 50.35388 0.55473 -0.13864 -0.19146
H 47.52645 49.63569 49.14072 0.58486 0.12486 0.10153
O 50.03413 49.99567 48.08548 0.39331 -2.20794 -0.79669
H 50.00136 49.05828 47.67284 0.01900 2.04604 0.76302
H 50.40143 50.56996 47.40668 -0.09484 0.01116 0.02138
O 52.07167 49.92232 50.18328 -0.55475 -1.95096 2.52678
H 52.71146 49.46773 50.83216 -1.16520 0.98144 -1.34106
H 52.55340 50.42241 49.57926 1.34776 1.04381 -1.28393
O 49.92531 47.97455 50.21773 -0.86364 1.22009 0.41840
H 49.41526 47.34366 50.72596 -0.17072 -0.16533 0.05163
H 50.62483 47.51520 49.80799 1.11380 -0.86642 -0.66131
O 49.99927 52.01050 49.95110 -0.27343 0.63440 0.22274
H 50.82101 52.50776 49.90548 0.06632 -0.02997 -0.00039
H 49.30592 52.69673 50.02929 0.35382 -0.57218 -0.08765
19
Lattice="100.000000 0.000000 0.000000 0.000000 100.000000 0.000000 0.000000 0.000000 100.000000" energy=-823.65606689 Properties=species:S:1:pos:R:3:forces:R:3
Mg 49.93722 50.07485 50.10805 0.87257 -0.30106 0.01376
O 49.89763 49.92486 52.05633 -0.09596 0.27280 -0.35033
H 50.06239 49.03165 52.36796 -0.00703 0.24386 0.38080
H 49.83548 50.55753 52.78254 0.05234 -0.29828 0.03275
O 48.15052 50.12578 49.74907 -0.76995 -0.51599 -0.20082
H 47.51992 50.60460 50.26820 -0.51180 0.38862 0.46437
H 47.62488 49.58006 49.14806 0.16150 0.09783 0.08386
O 50.01376 49.98762 48.12735 0.65024 0.46691 0.03227
H 49.93008 49.12058 47.75583 -0.08817 -0.57905 -0.40881
H 50.38510 50.55817 47.44081 -0.12615 -0.08913 0.11944
O 52.05480 49.90994 50.18837 -1.52597 2.45940 -2.78032
H 52.60672 49.44053 50.74162 1.81253 -1.23184 1.52534
H 52.58227 50.50948 49.57372 -0.61089 -1.15479 1.17515
O 49.91381 48.00231 50.25450 1.16783 -1.13892 -0.76889
H 49.45276 47.36032 50.81472 -0.02271 0.27792 -0.18184
H 50.60465 47.44628 49.77528 -1.09997 0.93873 0.71101
O 50.01347 51.99492 49.94788 1.06405 0.28699 0.04683
H 50.80866 52.54845 49.86725 -0.09132 -0.42118 0.05297
H 49.33480 52.65402 49.99537 -0.83112 0.29718 0.05248
19
Lattice="100.000000 0.000000 0.000000 0.000000 100.000000 0.000000 0.000000 0.000000 100.000000" energy=-823.69079590 Properties=species:S:1:pos:R:3:forces:R:3
Mg 49.93729 50.07401 50.11101 1.01192 -0.25904 0.19426
O 49.90147 49.92063 52.05615 -0.10627 0.27642 -0.29363
H 50.09216 49.04502 52.38708 0.05682 -0.07117 0.28524
H 49.85974 50.52678 52.79858 -0.00638 0.07848 0.12148
O 48.16398 50.14868 49.74360 -1.15992 0.72239 1.02600
H 47.51331 50.70741 50.22205 0.30942 -0.68096 -0.53122
H 47.72934 49.54410 49.15030 -0.47524 -0.08733 -0.12965
O 50.00082 49.98266 48.16963 0.55887 -1.01985 -1.31302
H 49.85797 49.08525 47.76765 0.20395 1.20056 0.33196
H 50.35384 50.55843 47.46095 -0.27058 -0.43127 0.49182
O 52.02446 49.90863 50.18170 0.59006 -1.44495 1.34826
H 52.65412 49.33857 50.73977 -1.27776 1.00853 -0.96811
H 52.60547 50.48495 49.70758 0.40509 0.49811 -0.44544
O 49.91008 48.02453 50.28919 -0.04976 -0.02733 -0.07187
H 49.45684 47.42207 50.88692 -0.19258 0.08383 0.04627
H 50.48123 47.45260 49.77721 0.25516 -0.10683 -0.26348
O 50.03444 51.98770 49.94397 -0.99367 0.39214 0.20323
H 50.80537 52.53440 49.85385 0.46188 0.36092 -0.00344
H 49.26533 52.59850 49.97454 0.67899 -0.49265 -0.02864
19
Lattice="100.000000 0.000000 0.000000 0.000000 100.000000 0.000000 0.000000 0.000000 100.000000" energy=-823.65307617 Properties=species:S:1:pos:R:3:forces:R:3
Mg 49.94503 50.06844 50.11436 0.94589 -0.17346 0.32777
O 49.90445 49.92314 52.05480 0.15345 -0.32213 0.87093
H 50.12441 49.05834 52.44860 -0.11192 0.43098 -0.36647
H 49.89927 50.49925 52.83280 -0.10349 0.23010 -0.34392
O 48.16085 50.17287 49.74534 -0.50522 -1.03000 -0.46123
H 47.49383 50.72065 50.12146 -0.83429 0.41612 0.36480
H 47.74752 49.51347 49.15283 0.04599 0.56813 0.49494
O 49.99955 49.97098 48.20444 0.11998 -1.29046 -0.65890
H 49.77825 49.12971 47.75587 0.16646 0.54819 0.27792
H 50.29785 50.54408 47.50635 0.22810 0.45911 -0.29928
O 51.99915 49.90011 50.18305 -0.24128 2.08785 -1.52816
H 52.56443 49.33404 50.64499 0.98707 -1.46195 1.16688
H 52.64778 50.53405 49.77547 -0.96304 -0.58738 0.31285
O 49.90509 48.04461 50.32830 0.50561 -0.40362 -0.87186
H 49.41801 47.49747 50.95029 -0.00983 -0.13160 -0.10919
H 50.41591 47.45431 49.72816 -0.50025 0.38518 0.63861
O 50.05137 51.98462 49.94032 1.40179 -0.06189 0.05374
H 50.83983 52.56561 49.86236 -0.85110 -0.32047 0.12877
H 49.26178 52.50344 49.94925 -0.43392 0.65732 0.00181
19
Lattice="100.000000 0.000000 0.000000 0.000000 100.000000 0.000000 0.000000 0.000000 100.000000" energy=-823.69146729 Properties=species:S:1:pos:R:3:forces:R:3
Mg 49.96264 50.06014 50.12358 0.66286 -0.08058 0.35973
O 49.90914 49.92446 52.06047 -0.19906 0.71212 -0.23248
H 50.14068 49.10309 52.46014 0.23472 -0.87607 0.29887
H 49.91010 50.53675 52.79365 -0.10918 0.54170 0.14554
O 48.14457 50.19220 49.74769 -1.72450 0.78863 0.76396
H 47.38232 50.74156 50.04572 0.80704 -0.35810 -0.00293
H 47.72025 49.55093 49.18804 -0.11860 -0.48294 -0.33852
O 50.00876 49.95446 48.23300 0.41628 -0.18704 -1.93376
H 49.73234 49.16731 47.72751 0.19660 0.35977 0.31714
H 50.25822 50.59635 47.52628 -0.12536 -0.46771 0.81066
O 51.97081 49.90075 50.17630 0.78703 -0.98684 0.76708
H 52.52258 49.21469 50.66142 -0.86245 1.10963 -0.79588
H 52.59349 50.56016 49.85315 -0.02635 -0.09527 0.00731
O 49.90241 48.06433 50.36212 0.09879 -0.56625 -0.62733
H 49.37199 47.55148 50.99400 0.26862 0.02558 -0.44754
H 50.30063 47.46219 49.69577 -0.39908 0.29389 0.71345
O 50.07774 51.97836 49.93829 -1.29100 -0.28647 0.16575
H 50.78674 52.59232 49.87348 0.73438 0.73955 -0.00216
H 49.23963 52.47988 49.92304 0.64925 -0.18360 0.03108
19
Lattice="100.000000 0.000000 0.000000 0.000000 100.000000 0.000000 0.000000 0.000000 100.000000" energy=-823.70129395 Properties=species:S:1:pos:R:3:forces:R:3
Mg 49.98634 50.05133 50.13786 0.26978 -0.02735 0.26102
O 49.91438 49.92892 52.06987 0.19205 -0.14405 0.61265
H 50.19202 49.07994 52.48998 -0.29910 1.17916 -0.11460
H 49.90186 50.65565 52.72092 0.03170 -0.62692 -0.21821
O 48.10498 50.21387 49.75386 -0.54021 -1.11726 -0.55674
H 47.35467 50.73374 49.99398 -0.58668 0.72586 0.57403
H 47.69072 49.53636 49.17698 0.45027 0.33747 0.40574
O 50.02500 49.93738 48.24637 -0.44235 -1.91232 -1.22193
H 49.69115 49.18999 47.66935 0.55222 0.97227 0.83574
H 50.22992 50.62237 47.62746 0.31256 0.67411 -0.41918
O 51.94667 49.89787 50.17597 -0.77024 0.88607 -0.47443
H 52.40506 49.20010 50.60676 0.73851 -0.64946 0.40288
H 52.56377 50.58283 49.89722 0.11445 -0.23374 0.08145
O 49.89651 48.08430 50.39006 0.26254 0.20199 -0.70999
H 49.35220 47.59398 50.98820 -0.50791 -0.36773 0.54863
H 50.17712 47.45143 49.72751 0.18535 -0.16287 -0.19416
O 50.09808 51.97061 49.94163 1.09276 0.98135 -0.01296
H 50.77570 52.68865 49.86572 -0.51555 -0.88704 0.16934
H 49.27725 52.44837 49.89229 -0.54017 0.17048 0.03073
19
Lattice="100.000000 0.000000 0.000000 0.000000 100.000000 0.000000 0.000000 0.000000 100.000000" energy=-823.66442871 Properties=species:S:1:pos:R:3:forces:R:3
Mg 50.01300 50.03991 50.15453 -0.11068 0.02978 0.10868
O 49.92098 49.93400 52.08367 -0.53485 1.07761 -1.27471
H 50.21103 49.18437 52.55534 0.43628 -0.95990 0.99609
H 49.89417 50.70575 52.63647 -0.00149 0.34255 0.58419
O 48.05206 50.23053 49.75152 -0.29653 1.21293 1.11403
H 47.29954 50.80053 50.02948 0.58907 -0.62359 -0.19470
H 47.72148 49.54483 49.19931 -0.61593 -0.65942 -0.52289
O 50.03881 49.90903 48.24679 0.59797 1.24692 -0.54109
H 49.69788 49.24171 47.66870 -0.10586 -0.39197 -0.60625
H 50.23808 50.71934 47.71319 -0.18441 -1.06965 0.43167
O 51.91638 49.89893 50.17427 1.22213 0.15189 0.20297
H 52.39408 49.14786 50.58819 -0.26944 0.71908 -0.43333
H 52.58313 50.58922 49.93889 -0.62262 -0.88691 0.26723
O 49.89132 48.10476 50.41400 -0.67152 -2.36479 -0.84692
H 49.28272 47.62424 51.03341 0.69896 0.69380 -0.59666
H 50.07404 47.39678 49.71564 -0.11560 1.27063 1.11334
O 50.12528 51.97463 49.94638 -1.29673 -0.39295 0.12501
H 50.74337 52.67474 49.86629 1.06084 0.82515 -0.00923
H 49.26596 52.42212 49.88160 0.22042 -0.22116 0.08256
19
Lattice="100.000000 0.000000 0.000000 0.000000 100.000000 0.000000 0.000000 0.000000 100.000000" energy=-823.59747314 Properties=species:S:1:pos:R:3:forces:R:3
Mg 50.03943 50.03164 50.16974 -0.48639 0.01534 -0.00489
O 49.92421 49.94448 52.09383 0.47195 -0.08789 1.71889
H 50.25302 49.24769 52.73771 -0.53725 1.03148 -1.05016
H 49.88397 50.76022 52.63143 -0.06074 -0.46314 -0.36137
O 47.99785 50.25475 49.75245 0.68483 -1.06419 -0.42173
H 47.28539 50.80702 50.05303 -0.60162 0.02535 0.07678
H 47.68017 49.50668 49.19133 -0.12962 0.96653 0.69425
O 50.06308 49.88825 48.24474 -1.02764 -2.61144 -0.95934
H 49.67321 49.23825 47.55591 0.94023 1.43754 1.27138
H 50.22382 50.70547 47.82289 0.26852 1.03894 -0.86540
O 51.89040 49.90012 50.17569 0.18469 -0.81328 0.42155
H 52.38425 49.13890 50.50420 -0.18277 -0.08188 -0.02304
H 52.56547 50.52340 49.97597 0.66363 0.84960 -0.34118
O 49.87768 48.11107 50.42862 0.25563 1.21516 -0.02152
H 49.27993 47.72960 51.04177 -0.79438 -0.42682 0.97200
H 50.00698 47.45674 49.78049 0.42909 -1.19698 -1.27344
O 50.14480 51.97750 49.95868 0.75527 0.51867 0.01002
H 50.80930 52.70652 49.87055 -0.85281 -0.69077 0.15582
H 49.26175 52.34026 49.87798 0.01936 0.33778 0.00138
19
Lattice="100.000000 0.000000 0.000000 0.000000 100.000000 0.000000 0.000000 0.000000 100.000000" energy=-823.50030518 Properties=species:S:1:pos:R:3:forces:R:3
Mg 50.06275 50.02584 50.18240 -0.86532 -0.01427 -0.09583
O 49.92715 49.95834 52.11852 -0.44943 1.19233 -0.58066
H 50.24078 49.40900 52.80547 0.52870 -1.33851 0.85533
H 49.86694 50.79100 52.58555 -0.22136 0.61213 -0.06531
O 47.95267 50.27019 49.75384 0.33757 0.94908 0.89019
H 47.19897 50.79345 50.07782 0.34901 -0.19943 -0.01667
H 47.57438 49.56736 49.25584 -0.46351 -0.81204 -0.56232
O 50.08407 49.85220 48.23575 0.91769 2.60776 0.80814
H 49.73342 49.35926 47.54327 -0.77645 -1.39295 -1.66327
H 50.22506 50.76190 47.84930 -0.07520 -1.27405 0.45506
O 51.87288 49.89492 50.18189 2.40547 0.81675 -0.17356
H 52.35791 49.09676 50.42608 -0.20874 -0.01559 -0.01428
H 52.61510 50.53654 49.96566 -1.22889 -0.86676 0.26809
O 49.86134 48.12286 50.43789 -0.58904 -1.95367 -0.95910
H 49.22575 47.80862 51.13741 0.95804 0.11323 -1.18287
H 50.00387 47.39998 49.72001 -0.49011 1.45487 1.88104
O 50.16582 51.98116 49.97514 -0.96411 -1.25607 0.18507
H 50.77559 52.68627 49.89867 0.79119 1.10109 -0.04343
H 49.27188 52.31572 49.86711 0.04448 0.27609 0.01437
19
Lattice="100.000000 0.000000 0.000000 0.000000 100.000000 0.000000 0.000000 0.000000 100.000000" energy=-823.39086914 Properties=species:S:1:pos:R:3:forces:R:3
Mg 50.07948 50.02144 50.19517 -1.06257 -0.05711 -0.16181
O 49.92288 49.98656 52.14529 0.23890 0.21315 0.96489
H 50.26197 49.42575 52.88986 -0.41162 0.67661 -0.88072
H 49.80604 50.88333 52.50422 0.04704 -0.46194 0.01680
O 47.91198 50.28879 49.76304 -0.59383 -0.95106 -0.40346
H 47.14903 50.76377 50.11147 0.21916 0.28671 0.27609
H 47.44040 49.57174 49.26656 0.80814 0.60669 0.40459
O 50.10918 49.83218 48.22886 -1.40035 -2.42697 -1.93889
H 49.71599 49.35309 47.38460 1.04312 0.92556 2.24147
H 50.22323 50.69939 47.91113 0.34664 1.49889 -0.51155
O 51.88166 49.89052 50.18978 -0.43421 -2.23710 0.76846
H 52.29062 49.00876 50.34445 -0.20690 0.86224 -0.16227
H 52.54775 50.48096 49.95760 1.68558 1.29009 -0.51986
O 49.84131 48.12397 50.43619 0.49872 2.87986 0.84720
H 49.24530 47.86868 51.10421 -1.00530 -0.60499 1.13707
H 49.94505 47.44779 49.84673 0.37184 -2.61599 -2.18053
O 50.18162 51.97684 49.99530 0.22291 1.09688 -0.14829
H 50.79468 52.75461 49.91738 -0.59492 -0.92898 0.17729
H 49.29708 52.34708 49.85964 0.22763 -0.05255 0.07350
19
Lattice="100.000000 0.000000 0.000000 0.000000 100.000000 0.000000 0.000000 0.000000 100.000000" energy=-823.37182617 Properties=species:S:1:pos:R:3:forces:R:3
Mg 50.08628 50.01768 50.20647 -1.04595 -0.03364 -0.19685
O 49.91899 50.02029 52.17878 -0.44638 0.58008 -1.32288
H 50.24496 49.48735 52.88506 0.29608 -0.30704 0.80176
H 49.75023 50.91852 52.46153 0.04578 0.10028 0.50342
O 47.87021 50.30015 49.76837 0.44983 0.82193 0.91979
H 47.14899 50.78815 50.20496 0.44855 -0.06373 -0.06395
H 47.41295 49.60708 49.32250 -0.31546 -0.82298 -0.60605
O 50.12525 49.80317 48.20272 1.36823 2.96444 2.78711
H 49.79923 49.38693 47.47769 -1.33348 -1.92650 -2.97147
H 50.27986 50.73997 47.93040 -0.08765 -0.97404 0.10694
O 51.89565 49.87699 50.20236 1.36366 1.97484 -0.48446
H 52.22187 48.99492 50.26321 0.65568 -0.68786 0.00236
H 52.63147 50.51194 49.92124 -1.11950 -1.39857 0.56002
O 49.82004 48.13609 50.43500 -0.97004 -3.00367 -0.59189
H 49.17441 47.85499 51.14422 0.98803 0.40449 -1.00146
H 49.90052 47.28056 49.83877 -0.12822 2.28821 1.48253
O 50.19811 51.98231 50.01408 -0.83389 -0.77897 0.02599
H 50.78398 52.71573 49.96230 0.95192 0.80515 0.05143
H 49.33261 52.36874 49.87055 -0.28717 0.05759 -0.00233
19
Lattice="100.000000 0.000000 0.000000 0.000000 100.000000 0.000000 0.000000 0.000000 100.000000" energy=-823.32092285 Properties=species:S:1:pos:R:3:forces:R:3
Mg 50.08497 50.01491 50.21653 -0.86063 0.01534 -0.23888
O 49.91039 50.06130 52.20047 0.04856 0.16042 0.32738
H 50.23710 49.53957 52.96144 -0.20099 0.37363 -0.54609
H 49.71149 50.94850 52.53325 0.08345 -0.27295 0.07193
O 47.83751 50.31273 49.78104 0.38763 -0.69782 -0.07002
H 47.20799 50.80985 50.32022 -0.02952 -0.27495 -0.23055
H 47.37261 49.57724 49.31584 0.28549 0.90379 0.54139
O 50.14832 49.79720 48.18972 -1.29171 -2.23049 -1.67131
H 49.78336 49.25119 47.35710 1.13353 1.73770 2.40942
H 50.32718 50.68359 47.92137 0.10018 0.59773 -0.64946
O 51.92262 49.87174 50.21547 -1.18292 -3.05879 0.71478
H 52.22733 48.91752 50.18306 -0.30555 1.46826 0.08262
H 52.62304 50.38638 49.93781 2.09656 1.47982 -0.73053
O 49.79128 48.12465 50.42512 0.12077 3.13114 1.24575
H 49.19200 47.88592 51.10674 -0.85393 -0.03531 1.20024
H 49.85353 47.35798 49.96702 0.62830 -3.30726 -2.48549
O 50.20434 51.98549 50.03164 0.18938 0.83087 -0.08190
H 50.86810 52.72423 50.03246 -0.80059 -0.83996 0.04560
H 49.33233 52.38202 49.86831 0.45198 0.01884 0.06512
19
Lattice="100.000000 0.000000 0.000000 0.000000 100.000000 0.000000 0.000000 0.000000 100.000000" energy=-823.36352539 Properties=species:S:1:pos:R:3:forces:R:3
Mg 50.07640 50.01315 50.22404 -0.64758 0.08123 -0.25304
O 49.90178 50.10779 52.22040 -0.17673 0.38228 -0.09441
H 50.20304 49.61367 52.98291 0.23437 -0.50026 0.03385
H 49.67783 50.95149 52.62337 -0.11063 0.26637 -0.18437
O 47.81921 50.31798 49.79670 1.34147 0.11988 0.38022
H 47.23858 50.79637 50.38726 -0.29622 0.04737 0.07121
H 47.31999 49.64684 49.34277 -0.35799 -0.23810 -0.21612
O 50.16307 49.78251 48.16889 1.60010 3.40811 3.52345
H 49.87247 49.30905 47.48006 -1.56595 -2.67820 -3.51753
H 50.37366 50.67174 47.81443 -0.09604 -0.60727 0.15723
O 51.94833 49.84826 50.23079 1.51014 2.69199 -0.54079
H 52.22048 48.97365 50.11141 0.46552 -2.06246 -0.09889
H 52.77629 50.36305 49.92637 -1.68772 -0.72921 0.71296
O 49.76186 48.12180 50.42308 -0.29358 -2.58506 -0.82129
H 49.14279 47.93880 51.16376 0.61600 -0.07070 -0.77649
H 49.87350 47.22236 49.88156 -0.39575 2.54787 1.60805
O 50.20696 51.98884 50.05057 -0.56238 -1.00074 -0.02098
H 50.88632 52.64172 50.11568 0.59261 0.63040 0.09588
H 49.37882 52.42868 49.86392 -0.16962 0.29651 -0.05894
19
Lattice="100.000000 0.000000 0.000000 0.000000 100.000000 0.000000 0.000000 0.000000 100.000000" energy=-823.40429688 Properties=species:S:1:pos:R:3:forces:R:3
Mg 50.05974 50.01373 50.22747 -0.45081 0.13007 -0.31208
O 49.89294 50.15543 52.23910 -0.04391 0.04439 0.24039
H 50.19753 49.61046 52.98347 -0.01123 0.06432 -0.39499
H 49.63019 50.98741 52.65499 0.02495 -0.05619 -0.16681
O 47.81633 50.32470 49.81993 -0.13413 -0.33939 0.36826
H 47.22772 50.76743 50.45639 0.34229 -0.09893 -0.27839
H 47.22781 49.70320 49.34886 0.49517 0.37245 0.14150
O 50.18659 49.78711 48.16519 -1.17878 -1.84434 -2.24619
H 49.83251 49.16342 47.37175 1.05311 1.81529 2.58816
H 50.42305 50.59405 47.70568 0.05530 0.14200 -0.02193
O 51.98620 49.83793 50.24463 -1.41474 -3.48459 0.02443
H 52.22601 48.86482 50.03481 -0.54195 1.94188 0.55562
H 52.74474 50.28849 49.99683 1.96094 1.46174 -0.51589
O 49.72902 48.10219 50.41338 -0.07937 3.59568 1.33960
H 49.14938 47.95321 51.14648 -0.48892 -0.38475 0.53994
H 49.87169 47.33813 49.96570 0.50124 -3.23610 -1.83398
O 50.20655 51.98545 50.07176 0.11274 0.60029 -0.01572
H 50.95142 52.60899 50.21004 -0.56092 -0.50106 -0.08160
H 49.43096 52.53054 49.85536 0.35899 -0.22276 0.06968
19
Lattice="100.000000 0.000000 0.000000 0.000000 100.000000 0.000000 0.000000 0.000000 100.000000" energy=-823.45452881 Properties=species:S:1:pos:R:3:forces:R:3
Mg 50.03839 50.01456 50.22618 -0.33868 0.21169 -0.31079
O 49.88506 50.20446 52.25850 -0.04624 -0.18989 -0.63649
H 50.20410 49.58319 52.92541 -0.07642 0.34524 0.04421
H 49.59191 51.02842 52.66062 0.11311 -0.18072 0.24103
O 47.81314 50.32706 49.84800 0.78478 -0.24019 0.16380
H 47.25801 50.74544 50.50184 -0.13293 0.30555 0.30574
H 47.20770 49.78392 49.33895 0.07128 -0.12408 -0.26045
O 50.20361 49.77957 48.14627 1.70339 3.61910 3.20727
H 49.90197 49.18803 47.56566 -1.76527 -3.43023 -3.06251
H 50.49380 50.53761 47.61501 -0.04342 -0.08494 0.22407
O 52.01981 49.80745 50.25600 0.31660 3.97226 0.42078
H 52.18679 48.94760 50.03274 0.86285 -3.01957 -0.75299
H 52.84223 50.36037 50.05641 -1.37187 -1.03156 0.39578
O 49.69235 48.10285 50.40786 0.29051 -2.06382 -0.69356
H 49.11916 47.89574 51.16337 0.24009 -0.07887 -0.40396
H 49.89354 47.20255 49.93364 -0.55007 2.16375 1.15141
O 50.20564 51.98654 50.09372 0.13610 -0.36370 0.06197
H 50.97222 52.51985 50.30658 0.30003 0.01615 0.10047
H 49.53292 52.62182 49.86686 -0.49385 0.17383 -0.19578
19
Lattice="100.000000 0.000000 0.000000 0.000000 100.000000 0.000000 0.000000 0.000000 100.000000" energy=-823.49920654 Properties=species:S:1:pos:R:3:forces:R:3
Mg 50.01299 50.01777 50.22090 -0.25413 0.22125 -0.31219
O 49.88153 50.25114 52.27025 -0.06602 -0.22397 -1.05905
H 50.19683 49.60133 52.89658 0.06733 0.04436 0.35477
H 49.58504 51.04384 52.71526 0.00731 0.07000 0.31468
O 47.81764 50.32799 49.87433 0.43640 0.08715 0.60874
H 47.29667 50.78374 50.56256 0.18986 -0.30658 -0.54235
H 47.21388 49.85527 49.28829 0.06872 0.16018 0.13152
O 50.22548 49.78802 48.14481 -1.24165 -2.44453 -1.25292
H 49.84359 48.98644 47.54972 1.23767 2.68217 1.75198
H 50.55434 50.47116 47.55390 -0.11891 -0.16655 -0.08067
O 52.05170 49.79727 50.27010 -1.70317 -3.16005 -0.38095
H 52.24586 48.82576 49.98686 -0.10171 2.35021 0.66018
H 52.80686 50.32294 50.15679 1.48635 0.75785 -0.21710
O 49.65820 48.08883 50.39941 -0.63847 1.61153 1.32300
H 49.09778 47.82500 51.14351 0.00723 0.22900 -0.07647
H 49.87304 47.28328 50.00483 0.63561 -1.76567 -1.18286
O 50.20458 51.98438 50.11689 -0.00544 0.58281 0.01962
H 51.01256 52.43784 50.40697 -0.26572 -0.20430 -0.10783
H 49.58540 52.70083 49.87921 0.25872 -0.52485 0.04792
19
Lattice="100.000000 0.000000 0.000000 0.000000 100.000000 0.000000 0.000000 0.000000 100.000000" energy=-823.56915283 Properties=species:S:1:pos:R:3:forces:R:3
Mg 49.98347 50.02311 50.21085 -0.12684 0.16912 -0.23071
O 49.87904 50.29634 52.27269 0.03401 -0.23119 0.32081
H 50.18678 49.65480 52.93490 -0.01984 0.10734 -0.39495
H 49.58812 51.04433 52.81472 0.00072 -0.04527 -0.33377
O 47.83136 50.32566 49.90648 0.78103 -0.50730 -0.41267
H 47.34245 50.79988 50.57027 -0.39071 0.21438 0.22077
H 47.21229 49.96677 49.24787 0.26057 0.23117 0.35544
O 50.24214 49.77902 48.13698 1.37426 2.99524 2.22606
H 49.89479 49.07649 47.70154 -1.47660 -2.90112 -1.89029
H 50.59887 50.39617 47.48516 -0.06486 -0.03916 0.09795
O 52.06698 49.76832 50.27981 0.02329 3.69122 0.80948
H 52.34502 48.95282 50.00445 0.87918 -3.03194 -0.91615
H 52.89830 50.33096 50.23526 -1.33947 -0.66553 0.17903
O 49.62308 48.08255 50.40314 0.79448 -1.70717 -0.99867
H 49.05706 47.78889 51.11611 -0.20662 0.00505 0.18911
H 49.91289 47.21096 49.94876 -0.54477 1.86184 0.84148
O 50.20438 51.98632 50.13839 0.50778 -0.65973 0.24522
H 51.03165 52.32110 50.51243 -0.31530 0.12507 -0.16771
H 49.64293 52.71628 49.89746 -0.17031 0.38799 -0.14041
19
Lattice="100.000000 0.000000 0.000000 0.000000 100.000000 0.000000 0.000000 0.000000 100.000000" energy=-823.59039307 Properties=species:S:1:pos:R:3:forces:R:3
Mg 49.95210 50.03185 50.19596 0.01834 0.03512 -0.15175
O 49.87432 50.33608 52.27730 -0.04490 -0.06554 0.06094
H 50.18886 49.70629 52.92883 0.22596 -0.46318 -0.12728
H 49.58900 51.05007 52.85837 -0.16286 0.29297 -0.34649
O 47.85654 50.32048 49.93729 0.36507 0.48433 0.93533
H 47.35206 50.85105 50.58605 0.39419 -0.34084 -0.37231
H 47.22908 50.10593 49.25411 -0.18087 -0.20130 -0.43762
O 50.26698 49.78290 48.14936 -1.29527 -2.21761 -0.99996
H 49.83328 48.95004 47.68241 1.16202 2.30104 1.20592
H 50.63745 50.31264 47.43261 -0.07982 -0.03840 0.22411
O 52.08079 49.75586 50.28879 -0.02579 -2.78680 -0.83312
H 52.49659 48.85804 49.98405 -1.18985 2.00132 0.73794
H 52.84480 50.30009 50.35876 0.68696 0.83176 0.18898
O 49.58867 48.06541 50.40459 -0.43349 0.78515 0.73792
H 48.98907 47.77149 51.11727 0.38370 0.02393 -0.54021
H 49.92931 47.30649 49.94841 0.11838 -0.56523 -0.17281
O 50.20857 51.98082 50.16030 -0.63587 0.24048 -0.33375
H 51.01619 52.26071 50.57988 0.33477 0.25492 0.12167
H 49.71230 52.78420 49.90317 0.35934 -0.57212 0.10250
19
Lattice="100.000000 0.000000 0.000000 0.000000 100.000000 0.000000 0.000000 0.000000 100.000000" energy=-823.68170166 Properties=species:S:1:pos:R:3:forces:R:3
Mg 49.92117 50.03819 50.17752 0.20457 -0.03594 0.00926
O 49.86730 50.37201 52.28182 0.22025 -0.57648 -0.06434
H 50.23531 49.70315 52.88776 -0.21533 0.39350 -0.27062
H 49.56218 51.11021 52.82174 0.01719 -0.11961 -0.04777
O 47.88779 50.31644 49.97425 -0.23069 -0.15557 -0.91187
H 47.40741 50.87757 50.57601 -0.06460 0.25718 0.50430
H 47.25039 50.21997 49.23005 0.74434 -0.13673 0.46745
O 50.28559 49.77379 48.16066 0.37559 1.02631 0.84916
H 49.85272 49.03769 47.78491 -0.71990 -1.18704 -0.58893
H 50.66945 50.25180 47.41826 0.08598 0.18284 0.13284
O 52.09652 49.72594 50.29310 -0.59395 3.32745 1.03585
H 52.50545 48.94136 50.06638 1.12740 -2.27490 -0.65262
H 52.83145 50.37952 50.49153 -1.12281 -0.98670 -0.28623
O 49.54808 48.05765 50.40807 1.23427 0.22301 -1.23746
H 48.95502 47.75202 51.07157 -0.60227 -0.52795 0.59868
H 49.95009 47.29564 49.92891 -0.51910 0.61210 0.63267
O 50.20986 51.97885 50.18119 1.08261 0.12533 0.56953
H 51.02682 52.26658 50.64594 -0.60134 -0.39357 -0.38499
H 49.82227 52.80736 49.91204 -0.42223 0.24677 -0.35491
19
Lattice="100.000000 0.000000 0.000000 0.000000 100.000000 0.000000 0.000000 0.000000 100.000000" energy=-823.57989502 Properties=species:S:1:pos:R:3:forces:R:3
Mg 49.89396 50.04290 50.15858 0.41622 -0.15932 0.17297
O 49.85977 50.40358 52.28172 -0.14398 -0.13949 -1.58650
H 50.24525 49.74365 52.83782 0.19923 -0.32714 0.76242
H 49.54494 51.16241 52.76348 -0.03694 0.10483 0.48749
O 47.91979 50.30874 50.00752 0.58445 0.67460 1.18865
H 47.48958 50.93775 50.61874 0.27843 -0.44770 -0.24798
H 47.35215 50.28150 49.25869 -0.60741 -0.20687 -0.94389
O 50.30288 49.77131 48.18143 -1.35140 -1.60415 -0.49348
H 49.79137 48.97698 47.79568 1.09966 1.65251 0.64097
H 50.70766 50.22774 47.43483 -0.02968 -0.03271 0.16861
O 52.10500 49.71350 50.30307 -0.45426 -2.14447 -0.54916
H 52.58799 48.83711 50.09227 -0.85711 2.04993 0.51418
H 52.71385 50.37482 50.59616 0.67583 0.19257 0.14185
O 49.51810 48.06080 50.40651 -0.24377 -1.13833 0.33182
H 48.87405 47.67030 51.05801 0.82051 0.60345 -0.86256
H 49.93340 47.28158 49.95970 -0.42044 0.88437 0.51110
O 50.21804 51.98100 50.20569 -0.77101 0.34861 -0.64674
H 50.99330 52.23830 50.67502 0.86431 0.15506 0.48039
H 49.86217 52.82367 49.87200 -0.02263 -0.46576 -0.07015
19