6
Lattice="100.000000 0.000000 0.000000 0.000000 100.000000 0.000000 0.000000 0.000000 100.000000" energy=-16312.66235436 Properties=species:S:1:pos:R:3:forces:R:3
C 0.12869 -0.15795 0.38723 0.61120 1.03855 -3.98097
F -0.88683 0.94332 -2.26425 0.05091 -0.06280 0.15533
Cl 0.64350 -0.75390 1.86191 0.93608 -1.10730 2.58149
H 1.01729 0.11722 -0.31119 -1.35398 -0.37645 1.13955
H -0.44994 0.75679 0.51725 -0.26798 0.09765 -0.17551
H -0.45271 -0.90548 -0.19096 0.02145 0.41046 0.27721
6
Lattice="100.000000 0.000000 0.000000 0.000000 100.000000 0.000000 0.000000 0.000000 100.000000" energy=-16312.62002487 Properties=species:S:1:pos:R:3:forces:R:3
C 0.11723 -0.15355 0.39324 1.06541 0.86982 -4.20360
F -0.87248 0.94215 -2.28230 0.04663 -0.06757 0.15033
Cl 0.63999 -0.75523 1.85410 1.00956 -1.21391 2.87521
H 1.01459 0.11639 -0.30382 -1.47040 -0.33314 1.15339
H -0.45165 0.75392 0.52456 -0.50413 0.42497 -0.14153
H -0.44766 -0.90368 -0.18579 -0.14988 0.31908 0.16328
6
Lattice="100.000000 0.000000 0.000000 0.000000 100.000000 0.000000 0.000000 0.000000 100.000000" energy=-16312.60308847 Properties=species:S:1:pos:R:3:forces:R:3
C 0.12099 -0.14477 0.38526 1.18343 0.64400 -3.98555
F -0.87272 0.94229 -2.28731 0.04727 -0.06463 0.14355
Cl 0.62487 -0.76479 1.83832 1.17317 -1.36568 3.18233
H 1.01312 0.11934 -0.30053 -1.29022 -0.21142 0.99428
H -0.44967 0.74241 0.54314 -0.73864 0.86087 -0.19455
H -0.43659 -0.89448 -0.17887 -0.37644 0.13501 -0.14450
6
Lattice="100.000000 0.000000 0.000000 0.000000 100.000000 0.000000 0.000000 0.000000 100.000000" energy=-16312.57831985 Properties=species:S:1:pos:R:3:forces:R:3
C 0.11152 -0.15361 0.39420 1.27565 1.10874 -4.21578
F -0.86278 0.95914 -2.27768 0.04735 -0.07890 0.15586
Cl 0.63285 -0.75840 1.84403 1.13346 -1.41954 3.18138
H 1.00434 0.09149 -0.31064 -1.36702 -0.09971 1.15696
H -0.45292 0.75014 0.54499 -0.53523 0.53388 -0.25746
H -0.43301 -0.88875 -0.19491 -0.55733 -0.04622 -0.02349
6
Lattice="100.000000 0.000000 0.000000 0.000000 100.000000 0.000000 0.000000 0.000000 100.000000" energy=-16312.64193595 Properties=species:S:1:pos:R:3:forces:R:3
C 0.10906 -0.14724 0.37506 1.36866 1.24694 -3.22482
F -0.86176 0.94206 -2.28088 0.04195 -0.06344 0.13709
Cl 0.63463 -0.75114 1.84398 1.05076 -1.21716 2.77521
H 1.00288 0.10329 -0.31321 -1.30498 -0.10759 1.00930
H -0.45935 0.75727 0.55300 -0.44008 0.28232 -0.40383
H -0.42546 -0.90425 -0.17795 -0.71991 -0.14174 -0.29582
6
Lattice="100.000000 0.000000 0.000000 0.000000 100.000000 0.000000 0.000000 0.000000 100.000000" energy=-16312.72326620 Properties=species:S:1:pos:R:3:forces:R:3
C 0.17300 -0.12137 0.09465 0.09673 -0.64514 2.07965
F -0.95348 0.82035 -2.16101 0.16177 -0.10357 0.22423
Cl 0.58694 -0.81701 1.87692 -0.40085 0.25748 -1.28549
H 1.11996 0.27815 -0.15752 1.18354 0.32285 -0.77103
H -0.49487 0.69213 0.29508 -0.81704 0.24786 -0.17451
H -0.18877 -0.91978 -0.54101 -0.21478 -0.08095 -0.08172
6
Lattice="100.000000 0.000000 0.000000 0.000000 100.000000 0.000000 0.000000 0.000000 100.000000" energy=-16312.35173608 Properties=species:S:1:pos:R:3:forces:R:3
C -0.08455 -0.14492 0.11914 1.10484 -0.30994 1.18631
F -0.53856 1.17281 -2.26607 0.05213 -0.24009 0.32007
Cl 0.60150 -0.30880 2.08501 -1.03750 0.37585 -2.61693
H 0.65819 0.29834 -0.53531 0.67099 0.19668 0.20226
H -0.94835 0.46402 -0.05235 -0.83394 0.81409 0.74813
H -0.30342 -1.15511 -0.18059 0.04227 -0.82929 0.16436
6
Lattice="100.000000 0.000000 0.000000 0.000000 100.000000 0.000000 0.000000 0.000000 100.000000" energy=-16312.48611794 Properties=species:S:1:pos:R:3:forces:R:3
C -0.00286 -0.20084 0.08574 0.34875 -1.06197 0.75626
F -0.89903 0.62975 -2.34288 0.17604 -0.11168 0.47475
Cl 0.64822 -0.83197 1.96925 -0.72564 0.97181 -1.84073
H 0.77258 -0.69326 -0.53131 -0.51453 0.29850 0.17491
H -0.04669 0.88962 -0.04377 0.22532 -0.18302 0.42097
H -1.00802 -0.65217 0.01433 0.48716 0.09260 0.00613
6
Lattice="100.000000 0.000000 0.000000 0.000000 100.000000 0.000000 0.000000 0.000000 100.000000" energy=-16312.68125680 Properties=species:S:1:pos:R:3:forces:R:3
C 0.15767 -0.10047 0.05261 -2.04154 -2.13799 1.96050
F -0.86076 0.88290 -2.28584 0.15822 -0.11698 0.26223
Cl 0.57235 -0.86333 1.79262 0.08291 0.68099 -1.28997
H 0.92093 -0.29767 -0.63435 1.75876 -0.14793 -0.96601
H -0.06788 0.93120 0.21734 -0.26299 0.71911 -0.01614
H -0.69958 -0.75499 -0.22860 0.31195 0.99164 0.03626
6
Lattice="100.000000 0.000000 0.000000 0.000000 100.000000 0.000000 0.000000 0.000000 100.000000" energy=-16312.62941506 Properties=species:S:1:pos:R:3:forces:R:3
C 0.23073 -0.01539 0.03262 -0.36272 -1.51334 2.14762
F -0.94221 0.86554 -1.97879 0.18025 -0.06090 0.11766
Cl 0.51333 -0.79675 1.86127 0.17083 0.55073 -1.40192
H 1.14284 0.11939 -0.46630 1.81224 0.32672 -0.42502
H -0.30093 0.85546 0.26466 -0.86746 1.38410 0.09576
H -0.33918 -0.76221 -0.45095 -0.92603 -0.69597 -0.53486
6
Lattice="100.000000 0.000000 0.000000 0.000000 100.000000 0.000000 0.000000 0.000000 100.000000" energy=-16312.69189188 Properties=species:S:1:pos:R:3:forces:R:3
C 0.17840 -0.11775 0.09904 1.53422 -2.78561 0.93021
F -0.94534 0.81565 -2.15751 0.15232 -0.10167 0.22897
Cl 0.59199 -0.82482 1.87685 -0.44411 0.41875 -1.47162
H 1.12044 0.29325 -0.19412 0.80645 0.21754 -0.47844
H -0.50206 0.63468 0.24181 -2.14681 1.91431 0.34132
H -0.18157 -0.91935 -0.57029 0.10777 0.33168 0.43904
6
Lattice="100.000000 0.000000 0.000000 0.000000 100.000000 0.000000 0.000000 0.000000 100.000000" energy=-16312.70563006 Properties=species:S:1:pos:R:3:forces:R:3
C 0.16664 -0.11586 0.09664 0.99603 -0.84818 1.56781
F -0.95986 0.81629 -2.15115 0.17043 -0.10735 0.22784
Cl 0.59656 -0.82192 1.87984 -0.31577 0.25308 -1.26805
H 1.12276 0.31847 -0.17621 0.27603 -0.20024 -0.52936
H -0.48079 0.69008 0.34646 -1.12162 0.46433 -0.17667
H -0.21307 -0.93599 -0.52734 0.00565 0.43658 0.16929
6
Lattice="100.000000 0.000000 0.000000 0.000000 100.000000 0.000000 0.000000 0.000000 100.000000" energy=-16312.67776273 Properties=species:S:1:pos:R:3:forces:R:3
C 0.16138 -0.11448 0.09340 0.50747 -0.64400 1.57718
F -0.96348 0.82863 -2.15063 0.15866 -0.09757 0.22781
Cl 0.59343 -0.80980 1.87508 -0.52602 0.34778 -1.33607
H 1.11774 0.31070 -0.14793 0.76615 -0.25580 -0.80314
H -0.44914 0.75233 0.25256 -1.09342 0.14084 0.04121
H -0.24912 -0.91717 -0.54293 0.19477 0.50343 0.29039
6
Lattice="100.000000 0.000000 0.000000 0.000000 100.000000 0.000000 0.000000 0.000000 100.000000" energy=-16312.78040375 Properties=species:S:1:pos:R:3:forces:R:3
C 0.18384 -0.11653 0.11383 -0.02470 -0.37032 1.97906
F -0.96010 0.81873 -2.16512 0.14496 -0.09297 0.22962
Cl 0.58595 -0.81859 1.88328 -0.35313 0.35105 -1.30129
H 1.12344 0.31437 -0.16267 0.74374 0.08247 -0.62671
H -0.52635 0.67717 0.28607 -0.51168 0.14009 -0.10469
H -0.20722 -0.91676 -0.50291 0.01126 -0.11131 -0.18562
6
Lattice="100.000000 0.000000 0.000000 0.000000 100.000000 0.000000 0.000000 0.000000 100.000000" energy=-16312.70183204 Properties=species:S:1:pos:R:3:forces:R:3
C 0.16786 -0.11412 0.09233 1.19749 -1.70910 1.42218
F -0.96570 0.82504 -2.15780 0.16382 -0.11231 0.22591
Cl 0.58861 -0.81434 1.87704 -0.48347 0.26800 -1.40030
H 1.13139 0.25889 -0.16943 0.82845 0.50218 -0.51616
H -0.51828 0.65510 0.27038 -1.37840 1.12266 0.03585
H -0.14543 -0.89941 -0.59468 -0.31931 -0.07580 0.22172
6
Lattice="100.000000 0.000000 0.000000 0.000000 100.000000 0.000000 0.000000 0.000000 100.000000" energy=-16312.74727171 Properties=species:S:1:pos:R:3:forces:R:3
C 0.19851 -0.11632 0.10814 0.33523 -0.16790 1.71653
F -0.96527 0.81325 -2.17851 0.15851 -0.07987 0.22580
Cl 0.58842 -0.82364 1.89074 -0.23945 0.35518 -1.25507
H 1.16668 0.29334 -0.18799 -0.00821 -0.08871 -0.28279
H -0.50566 0.69874 0.32803 -0.09517 -0.49464 -0.50823
H -0.14282 -0.96856 -0.49478 -0.13929 0.47484 0.09737
6
Lattice="100.000000 0.000000 0.000000 0.000000 100.000000 0.000000 0.000000 0.000000 100.000000" energy=-16312.56353090 Properties=species:S:1:pos:R:3:forces:R:3
C 0.18037 -0.11451 0.11898 -2.41928 -2.24230 2.96388
F -0.95693 0.81655 -2.15748 0.15640 -0.10122 0.24646
Cl 0.58726 -0.81712 1.89136 -0.33401 0.35377 -1.30482
H 1.05524 0.29183 -0.13794 3.86861 1.47101 -1.58776
H -0.52525 0.64506 0.29716 -1.21928 0.98942 0.12301
H -0.23000 -0.90311 -0.47967 -0.04305 -0.47088 -0.45390
6
Lattice="100.000000 0.000000 0.000000 0.000000 100.000000 0.000000 0.000000 0.000000 100.000000" energy=-16312.76220220 Properties=species:S:1:pos:R:3:forces:R:3
C 0.18047 -0.11330 0.10972 -1.25394 0.58122 2.56106
F -0.95437 0.80858 -2.16028 0.15423 -0.09011 0.19811
Cl 0.57783 -0.81432 1.87954 -0.17796 0.32475 -1.33067
H 1.08259 0.34489 -0.20356 1.17210 0.35962 -0.56168
H -0.57556 0.67859 0.32986 0.38343 -0.81208 -0.51987
H -0.17319 -0.91758 -0.50730 -0.26700 -0.36326 -0.35709
6
Lattice="100.000000 0.000000 0.000000 0.000000 100.000000 0.000000 0.000000 0.000000 100.000000" energy=-16312.76034001 Properties=species:S:1:pos:R:3:forces:R:3
C 0.18772 -0.10898 0.11577 0.47915 0.98976 1.54977
F -0.95857 0.81003 -2.17048 0.11656 -0.08962 0.24165
Cl 0.58234 -0.81875 1.87993 -0.45768 0.44168 -1.28998
H 1.18719 0.32532 -0.16002 -1.01173 -0.63395 -0.25655
H -0.56830 0.70519 0.22446 0.54277 -0.59414 -0.02515
H -0.25549 -0.89944 -0.48609 0.34209 -0.11759 -0.22566
6
Lattice="100.000000 0.000000 0.000000 0.000000 100.000000 0.000000 0.000000 0.000000 100.000000" energy=-16312.67371044 Properties=species:S:1:pos:R:3:forces:R:3
C 0.19503 -0.11517 0.09816 -2.19558 -1.94116 2.05161
F -0.96048 0.81660 -2.16912 0.15766 -0.08607 0.24397
Cl 0.58655 -0.81906 1.89363 -0.35196 0.40635 -1.29187
H 1.12781 0.23265 -0.16037 2.36386 0.87749 -1.10457
H -0.52235 0.67872 0.26921 -0.24887 0.06680 -0.20835
H -0.20808 -0.96311 -0.49502 0.28505 0.67361 0.29962
6
Lattice="100.000000 0.000000 0.000000 0.000000 100.000000 0.000000 0.000000 0.000000 100.000000" energy=-16312.40517721 Properties=species:S:1:pos:R:3:forces:R:3
C 0.12051 -0.14886 -0.28819 -2.69403 2.02357 0.31116
F -0.91807 0.66269 -1.47601 0.13987 -0.30050 -1.56608
Cl 0.77226 -0.70316 1.79169 0.78324 -0.41288 0.87160
H 0.94946 0.46161 -0.57769 0.80573 0.19060 0.24960
H -0.74305 0.31342 0.20526 1.10773 -0.70934 0.69406
H 0.10396 -1.18684 -0.52488 -0.14249 -0.79826 -0.55081
6
Lattice="100.000000 0.000000 0.000000 0.000000 100.000000 0.000000 0.000000 0.000000 100.000000" energy=-16311.37544564 Properties=species:S:1:pos:R:3:forces:R:3
C 0.25443 -0.54422 -0.53328 -0.78900 -0.17323 2.69613
F -0.97325 0.68059 -1.62351 -0.38165 0.51792 -1.83555
Cl 0.33210 -0.59413 1.88482 0.40541 -0.24352 -0.33189
H 1.24449 -0.03821 -0.66199 -1.11593 -0.17426 -0.04411
H -0.74386 -0.10680 -0.33329 1.55455 -0.09420 0.38561
H 0.22108 -1.64816 -0.56006 0.32660 0.17061 -0.86660
6
Lattice="100.000000 0.000000 0.000000 0.000000 100.000000 0.000000 0.000000 0.000000 100.000000" energy=-16312.15636796 Properties=species:S:1:pos:R:3:forces:R:3
C 0.00535 0.17327 0.00623 -1.54969 1.24773 0.38959
F -0.73274 0.76671 -1.53881 -0.36483 0.81219 -2.05694
Cl 0.47873 -0.72963 1.69887 0.56270 -0.44079 1.91983
H 0.96858 0.53708 -0.21233 1.47976 -0.06185 -0.77067
H -0.61340 1.05435 0.25730 0.04276 -1.05665 0.91233
H -0.40969 -0.73228 -0.36354 -0.16780 -0.51316 -0.39866
6
Lattice="100.000000 0.000000 0.000000 0.000000 100.000000 0.000000 0.000000 0.000000 100.000000" energy=-16312.42090755 Properties=species:S:1:pos:R:3:forces:R:3
C 0.20260 -0.17213 -0.12731 0.40536 -0.37772 0.12731
F -0.83673 0.69047 -1.79289 -0.53034 0.60813 -1.46361
Cl 0.49589 -0.75535 1.75119 -0.01141 -0.15028 -1.05422
H 1.17551 0.29420 -0.39065 -0.54977 0.07551 0.37039
H -0.67580 0.49911 -0.15226 0.61210 -0.33782 0.42475
H 0.02035 -0.97072 -0.90818 0.07711 0.18502 1.59480
6
Lattice="100.000000 0.000000 0.000000 0.000000 100.000000 0.000000 0.000000 0.000000 100.000000" energy=-16312.00729180 Properties=species:S:1:pos:R:3:forces:R:3
C 0.01838 0.58848 0.18591 -0.97371 -1.16377 1.62304
F -0.95625 0.76895 -1.57926 -0.63454 0.88786 -1.65005
Cl 0.34774 -0.99777 1.50971 0.69055 0.31989 0.40519
H 0.63929 0.31198 -0.61657 0.93323 -0.54686 -0.64474
H 0.24242 1.52369 0.69981 0.03700 0.14550 0.18611
H -0.99646 0.24829 0.13291 -0.06122 0.36091 0.08394
6
Lattice="100.000000 0.000000 0.000000 0.000000 100.000000 0.000000 0.000000 0.000000 100.000000" energy=-16313.48781337 Properties=species:S:1:pos:R:3:forces:R:3
C -0.37866 0.38702 0.08933 0.74687 1.10550 -2.61588
F -0.60719 0.98771 -1.39406 0.07874 -0.98482 2.65350
Cl 0.50184 -0.66629 2.22928 0.33716 -0.58782 1.34962
H 0.72796 0.38504 0.21623 -0.81935 -0.22665 -0.66329
H -0.72607 1.13765 0.82527 -0.52830 -0.39770 -0.58347
H -0.82609 -0.63824 0.10406 0.18759 1.08864 -0.15312
6
Lattice="100.000000 0.000000 0.000000 0.000000 100.000000 0.000000 0.000000 0.000000 100.000000" energy=-16312.69924171 Properties=species:S:1:pos:R:3:forces:R:3
C -0.09252 0.59235 -0.74840 5.73796 -2.09286 10.28845
F -0.34197 0.98200 -1.82385 -3.89593 4.79084 -13.77473
Cl 0.71561 -0.52083 1.59800 0.36835 -0.56871 1.30515
H 1.02096 0.91484 -0.52950 -1.62249 -0.68816 0.54652
H -0.74020 0.99980 0.00035 -0.56778 0.43577 1.28974
H -0.11510 -0.45878 -0.65946 -0.02178 -1.87829 0.33594
6
Lattice="100.000000 0.000000 0.000000 0.000000 100.000000 0.000000 0.000000 0.000000 100.000000" energy=-16313.53988741 Properties=species:S:1:pos:R:3:forces:R:3
C -0.42005 0.10270 -0.56352 -0.62145 -0.93552 -3.94161
F -0.49866 0.32242 -2.03152 -0.10190 0.37882 0.23484
Cl 0.38163 -0.93680 1.62513 0.28990 -0.54657 1.71914
H 0.57359 -0.39267 -0.49415 -1.08020 0.61113 0.43681
H -0.60411 1.09174 -0.17995 0.48770 0.52434 0.86742
H -1.34828 -0.51059 -0.45108 1.03480 -0.02614 0.68354
6
Lattice="100.000000 0.000000 0.000000 0.000000 100.000000 0.000000 0.000000 0.000000 100.000000" energy=-16312.36731575 Properties=species:S:1:pos:R:3:forces:R:3
C -0.11706 0.38692 -0.54752 3.74580 -7.17661 8.64523
F -0.48309 0.73005 -1.61589 -4.05779 5.26822 -11.66270
Cl 0.57925 -0.17625 1.85549 0.81063 -0.82414 2.66000
H 0.84366 -0.25174 -0.66982 -0.97039 0.21533 0.39496
H 0.22225 0.98348 0.27382 -0.29240 2.07736 0.01768
H -0.89649 -0.30065 -0.08025 0.76282 0.44819 -0.04382
6
Lattice="100.000000 0.000000 0.000000 0.000000 100.000000 0.000000 0.000000 0.000000 100.000000" energy=-16312.20569822 Properties=species:S:1:pos:R:3:forces:R:3
C -0.14364 -0.29660 0.03875 -1.47775 0.69032 4.18576
F -0.76168 1.47269 -1.64610 0.07943 -0.01808 -0.07698
Cl 0.68092 -0.68222 1.81101 -0.63522 -0.01370 -2.13342
H 0.44393 0.05153 -0.71569 3.00693 -0.13935 -2.69038
H -0.48855 0.72872 0.16041 -0.96177 0.12120 0.58745
H -0.96417 -0.95927 -0.19857 -0.00204 -0.63485 0.13361
6
Lattice="100.000000 0.000000 0.000000 0.000000 100.000000 0.000000 0.000000 0.000000 100.000000" energy=-16313.50360080 Properties=species:S:1:pos:R:3:forces:R:3
C -0.41118 0.09368 -0.55658 -3.24790 -0.44535 -3.88390
F -0.50077 0.31385 -2.02622 0.01179 0.42327 0.27058
Cl 0.39375 -0.94002 1.63445 0.29975 -0.51835 1.64022
H 0.54428 -0.35402 -0.48368 0.72293 -0.40842 0.51629
H -0.57172 1.09194 -0.16175 0.26708 0.13783 0.70169
H -1.36420 -0.56725 -0.46963 1.95518 0.81756 0.75708
6
Lattice="100.000000 0.000000 0.000000 0.000000 100.000000 0.000000 0.000000 0.000000 100.000000" energy=-16313.61495343 Properties=species:S:1:pos:R:3:forces:R:3
C -0.41581 0.10605 -0.56152 -1.32891 0.52654 -3.62546
F -0.49481 0.32253 -2.02883 -0.12506 0.35230 0.38001
Cl 0.38383 -0.93916 1.62649 0.30572 -0.56587 1.72575
H 0.54391 -0.38366 -0.48307 -0.03481 0.19596 0.47299
H -0.60646 1.11172 -0.15483 0.63179 -0.27002 0.44126
H -1.31942 -0.50922 -0.42514 0.55931 -0.23189 0.60552
6
Lattice="100.000000 0.000000 0.000000 0.000000 100.000000 0.000000 0.000000 0.000000 100.000000" energy=-16313.47874419 Properties=species:S:1:pos:R:3:forces:R:3
C -0.43803 0.09039 -0.55238 2.00289 0.78119 -4.22946
F -0.50788 0.32123 -2.03601 -0.31679 0.25694 0.29481
Cl 0.37782 -0.93950 1.62507 0.25159 -0.50924 1.64140
H 0.59416 -0.35080 -0.52008 -1.49816 0.42148 0.54426
H -0.57400 1.10022 -0.19201 0.30290 0.32493 0.85806
H -1.31435 -0.48734 -0.43518 -0.73500 -1.26695 0.89124
6
Lattice="100.000000 0.000000 0.000000 0.000000 100.000000 0.000000 0.000000 0.000000 100.000000" energy=-16313.53747647 Properties=species:S:1:pos:R:3:forces:R:3
C -0.41372 0.09985 -0.56252 0.03445 1.13926 -4.08064
F -0.49855 0.33394 -2.03766 -0.00566 0.33564 0.39389
Cl 0.37501 -0.93445 1.61623 0.27952 -0.57445 1.75377
H 0.56382 -0.34527 -0.47202 -0.09314 -0.06099 0.30817
H -0.58877 1.08487 -0.15844 0.43456 0.49188 0.70591
H -1.30277 -0.46664 -0.46398 -0.64300 -1.32417 0.91920
6
Lattice="100.000000 0.000000 0.000000 0.000000 100.000000 0.000000 0.000000 0.000000 100.000000" energy=-16313.56693232 Properties=species:S:1:pos:R:3:forces:R:3
C -0.41561 0.10865 -0.56039 -1.25196 -1.28740 -4.16681
F -0.49405 0.32861 -2.04274 -0.15965 0.46831 0.54143
Cl 0.37502 -0.93758 1.62602 0.27871 -0.51627 1.64391
H 0.55332 -0.38173 -0.51359 -0.33419 0.07211 0.48466
H -0.51602 1.08562 -0.14918 0.16421 0.90772 0.85057
H -1.35503 -0.51124 -0.44888 1.31267 0.36327 0.64692
6
Lattice="100.000000 0.000000 0.000000 0.000000 100.000000 0.000000 0.000000 0.000000 100.000000" energy=-16313.96143869 Properties=species:S:1:pos:R:3:forces:R:3
C -0.56891 -0.05475 -1.37417 0.23319 -0.25260 2.38760
F -0.95229 0.50376 -2.49138 -0.21078 2.31600 -3.68241
Cl 0.43879 -0.85033 2.08295 -0.01260 0.02146 -0.06021
H 0.54520 -0.28224 -1.37852 -1.16419 -0.42737 0.02909
H -0.72128 0.70658 -0.54925 0.05654 -1.00776 -0.20270
H -1.32916 -0.86666 -1.36515 1.09928 -0.66354 1.50809
6
Lattice="100.000000 0.000000 0.000000 0.000000 100.000000 0.000000 0.000000 0.000000 100.000000" energy=-16314.08260515 Properties=species:S:1:pos:R:3:forces:R:3
C -0.37363 -0.04079 -1.17333 -0.06041 -1.54544 -2.73006
F -0.57493 0.65959 -2.45604 0.77327 -1.55916 1.86480
Cl 0.43573 -0.69814 2.20307 -0.01417 0.01254 -0.08737
H 0.69616 -0.23881 -0.91023 -0.46324 0.39847 -0.64045
H -0.76608 0.65048 -0.48653 -0.85241 0.67403 1.57785
H -0.89924 -1.08734 -1.20495 0.61270 2.02400 0.03724
6
Lattice="100.000000 0.000000 0.000000 0.000000 100.000000 0.000000 0.000000 0.000000 100.000000" energy=-16313.85820988 Properties=species:S:1:pos:R:3:forces:R:3
C -0.34985 0.10290 -0.65454 0.62896 0.17778 0.44737
F -0.45516 0.30281 -2.02413 -0.51641 0.49712 0.30059
Cl 0.38233 -0.96075 1.68138 0.35214 -0.54035 1.61525
H 0.63100 -0.30367 -0.41601 0.17633 -0.48942 -0.51862
H -0.28455 1.01490 0.01453 -0.78439 -0.21821 -1.11994
H -1.08151 -0.62130 -0.22279 0.14458 0.57918 -0.71379
6
Lattice="100.000000 0.000000 0.000000 0.000000 100.000000 0.000000 0.000000 0.000000 100.000000" energy=-16313.87125270 Properties=species:S:1:pos:R:3:forces:R:3
C -0.40699 0.14327 -0.63331 1.22027 0.12119 0.44894
F -0.51949 0.35378 -1.97984 -0.86435 0.50044 -0.59285
Cl 0.38508 -0.94790 1.66411 0.39588 -0.58630 1.65614
H 0.55924 -0.31921 -0.45519 0.24544 -0.33014 -0.23142
H -0.29342 1.06989 -0.01550 -0.70597 -0.15119 -0.63340
H -1.11541 -0.56661 -0.16771 -0.29257 0.45014 -0.63914
6
Lattice="100.000000 0.000000 0.000000 0.000000 100.000000 0.000000 0.000000 0.000000 100.000000" energy=-16314.01819605 Properties=species:S:1:pos:R:3:forces:R:3
C -0.41144 -0.17788 -1.33136 -1.66940 0.94659 -0.39476
F -0.75220 0.45046 -2.64386 1.37648 -1.28644 2.92883
Cl 0.27732 -1.17730 1.93893 -0.01998 0.03297 -0.12980
H 0.61533 -0.45479 -1.06491 0.58953 0.61292 -1.03720
H -0.77622 0.43080 -0.45517 0.16701 -0.04391 -1.07217
H -0.94390 -1.12436 -1.26580 -0.44853 -0.27640 -0.30104
6
Lattice="100.000000 0.000000 0.000000 0.000000 100.000000 0.000000 0.000000 0.000000 100.000000" energy=-16314.13995725 Properties=species:S:1:pos:R:3:forces:R:3
C -0.36926 -0.04840 -1.18692 -2.63086 0.18819 -1.71457
F -0.57702 0.65941 -2.45178 0.98416 -1.45830 1.62382
Cl 0.44010 -0.69862 2.20130 -0.01182 0.00542 -0.08699
H 0.63743 -0.25820 -0.89713 1.36892 0.45718 -0.19293
H -0.86393 0.63652 -0.48128 0.14539 -0.59788 0.37703
H -0.85174 -1.08499 -1.24859 0.14027 1.41483 0.01723
6
Lattice="100.000000 0.000000 0.000000 0.000000 100.000000 0.000000 0.000000 0.000000 100.000000" energy=-16314.19906348 Properties=species:S:1:pos:R:3:forces:R:3
C -0.38519 -0.02029 -1.17751 0.39363 -0.51935 -2.89058
F -0.57656 0.65939 -2.45918 0.51020 -1.39713 1.64554
Cl 0.43984 -0.69783 2.20087 -0.01799 0.01559 -0.08881
H 0.67901 -0.16638 -0.94940 0.14220 0.10991 -0.34962
H -0.75761 0.67120 -0.48892 -1.03224 0.86877 1.72669
H -0.86602 -1.03457 -1.18816 0.00269 0.92212 -0.02326
6
Lattice="100.000000 0.000000 0.000000 0.000000 100.000000 0.000000 0.000000 0.000000 100.000000" energy=-16314.18496339 Properties=species:S:1:pos:R:3:forces:R:3
C -0.38492 -0.02569 -1.17060 -1.01405 -0.27670 -2.22925
F -0.57026 0.65955 -2.44677 0.68864 -1.36274 1.81531
Cl 0.43307 -0.69654 2.20113 -0.01316 0.01414 -0.08761
H 0.63618 -0.20278 -0.88928 1.20369 0.18846 -0.39179
H -0.76568 0.65658 -0.43968 -0.79498 0.18212 0.86533
H -0.84597 -1.06090 -1.21116 -0.07122 1.25767 0.04901
6
Lattice="100.000000 0.000000 0.000000 0.000000 100.000000 0.000000 0.000000 0.000000 100.000000" energy=-16314.17288444 Properties=species:S:1:pos:R:3:forces:R:3
C -0.35785 -0.03280 -1.18831 -0.05572 -0.43513 -1.77540
F -0.58016 0.65571 -2.45244 0.86413 -1.50800 1.47160
Cl 0.43500 -0.69995 2.20245 -0.01215 0.00963 -0.08761
H 0.70435 -0.23946 -0.90705 -0.32829 0.51009 -0.73677
H -0.75921 0.67075 -0.50011 -0.56462 0.32280 1.31463
H -0.86344 -1.04475 -1.17698 0.08725 1.10203 -0.16295
6
Lattice="100.000000 0.000000 0.000000 0.000000 100.000000 0.000000 0.000000 0.000000 100.000000" energy=-16314.16225930 Properties=species:S:1:pos:R:3:forces:R:3
C -0.37178 -0.05219 -1.17570 -1.39055 0.50618 -1.52190
F -0.57701 0.65912 -2.45772 0.80931 -1.65839 1.88336
Cl 0.43274 -0.70261 2.19159 -0.01090 0.00662 -0.07959
H 0.67919 -0.24629 -0.91740 0.11515 0.32706 -0.46498
H -0.80269 0.67049 -0.46402 0.05315 -0.59668 0.29019
H -0.90885 -1.06420 -1.19433 0.42009 1.42129 -0.08554
6
Lattice="100.000000 0.000000 0.000000 0.000000 100.000000 0.000000 0.000000 0.000000 100.000000" energy=-16314.29087908 Properties=species:S:1:pos:R:3:forces:R:3
C -0.38814 -0.01973 -1.18821 1.15181 1.70662 -0.60841
F -0.58384 0.65134 -2.44895 0.42307 -1.30310 1.42319
Cl 0.44645 -0.70577 2.20103 -0.01593 0.01111 -0.07111
H 0.71979 -0.14826 -0.93837 -1.21513 0.13813 -0.62202
H -0.79021 0.67775 -0.43863 -0.08083 -0.32520 0.16583
H -0.88749 -0.98636 -1.14827 -0.26552 -0.22719 -0.26311
6
Lattice="100.000000 0.000000 0.000000 0.000000 100.000000 0.000000 0.000000 0.000000 100.000000" energy=-16314.25172247 Properties=species:S:1:pos:R:3:forces:R:3
C -0.37816 0.00536 -1.17003 1.07759 0.56559 -1.65795
F -0.55489 0.64728 -2.46079 0.57700 -0.90211 1.75964
Cl 0.43919 -0.69905 2.19458 -0.01430 0.01241 -0.07307
H 0.70312 -0.17486 -0.90418 -0.62650 0.54779 -0.56168
H -0.78236 0.68727 -0.41818 -0.39939 -0.32780 0.20377
H -0.79185 -1.00421 -1.26150 -0.61615 0.10263 0.34071
6
Lattice="100.000000 0.000000 0.000000 0.000000 100.000000 0.000000 0.000000 0.000000 100.000000" energy=-16314.22738660 Properties=species:S:1:pos:R:3:forces:R:3
C -0.38568 -0.01914 -1.18377 0.97409 1.13647 -0.81481
F -0.58537 0.65389 -2.46029 0.45603 -1.45489 1.67660
Cl 0.44421 -0.69841 2.19573 -0.01453 0.01123 -0.07255
H 0.72907 -0.12946 -0.93774 -1.28651 0.17196 -0.63386
H -0.78447 0.70384 -0.44370 -0.12391 -0.71173 0.01756
H -0.84456 -1.04098 -1.16503 -0.00848 0.84537 -0.15164
6
Lattice="100.000000 0.000000 0.000000 0.000000 100.000000 0.000000 0.000000 0.000000 100.000000" energy=-16314.10546299 Properties=species:S:1:pos:R:3:forces:R:3
C -0.36980 -0.02299 -1.19137 1.57719 -0.85332 -2.71032
F -0.58462 0.65881 -2.45703 0.80493 -1.41763 1.36210
Cl 0.43835 -0.69407 2.19975 -0.01451 0.01376 -0.09082
H 0.71458 -0.21376 -0.90430 -0.87667 0.42814 -0.89537
H -0.73002 0.67295 -0.52802 -1.27854 1.41676 2.41706
H -0.86737 -1.00960 -1.18814 -0.22018 0.41196 -0.05898
6
Lattice="100.000000 0.000000 0.000000 0.000000 100.000000 0.000000 0.000000 0.000000 100.000000" energy=-16314.23632788 Properties=species:S:1:pos:R:3:forces:R:3
C -0.37563 -0.01785 -1.19084 -1.54330 1.76308 -1.21567
F -0.57993 0.66657 -2.46391 0.66145 -1.36940 1.58510
Cl 0.44290 -0.69795 2.19029 -0.01171 0.01094 -0.08242
H 0.65863 -0.15503 -0.94205 1.09353 0.03096 -0.24082
H -0.78382 0.71659 -0.45548 -0.03648 -0.94221 -0.07031
H -0.85908 -1.01496 -1.21567 -0.16748 0.50721 0.04603
6
Lattice="100.000000 0.000000 0.000000 0.000000 100.000000 0.000000 0.000000 0.000000 100.000000" energy=-16312.77839032 Properties=species:S:1:pos:R:3:forces:R:3
C 0.42765 -0.31909 -0.95453 -1.19047 1.84169 -5.42217
F -0.29990 0.92064 -2.07288 1.20994 -2.60534 2.37139
Cl -0.44680 -0.58978 1.90770 -0.10893 -0.09842 0.52063
H 1.35414 -0.32836 -1.52381 0.33942 -0.39997 0.24831
H 0.39557 0.15714 -0.04320 -0.13446 1.24784 2.36777
H -0.21975 -1.18985 -1.05080 -0.11544 0.01865 -0.08141
6
Lattice="100.000000 0.000000 0.000000 0.000000 100.000000 0.000000 0.000000 0.000000 100.000000" energy=-16314.16555894 Properties=species:S:1:pos:R:3:forces:R:3
C -0.55105 -0.00992 -1.28127 -0.81309 -2.09181 3.17826
F -0.72696 0.61826 -2.39232 -0.33458 1.61733 -3.82280
Cl 0.39653 -0.78519 2.20012 -0.01855 0.01866 -0.07661
H 0.44216 -0.44586 -1.16875 0.36574 -0.52769 -0.28227
H -0.59218 0.72190 -0.48703 -0.29544 0.23388 1.02902
H -1.37317 -0.79829 -1.12898 1.08704 0.76183 0.00181
6
Lattice="100.000000 0.000000 0.000000 0.000000 100.000000 0.000000 0.000000 0.000000 100.000000" energy=-16312.40729953 Properties=species:S:1:pos:R:3:forces:R:3
C -0.66487 -0.66239 -1.17103 5.48466 2.10266 -1.82181
F -0.02725 0.91579 -0.95350 -1.58192 -3.95456 -1.68959
Cl -0.29873 0.19204 1.65144 -0.09392 -0.18925 1.22526
H -0.08771 -1.25116 -0.46032 0.00313 0.25219 0.55198
H -1.64740 -0.57442 -0.80217 -1.72732 0.17603 -0.30793
H -0.20637 -1.07430 -2.22564 -2.08315 1.62349 2.05738
6
Lattice="100.000000 0.000000 0.000000 0.000000 100.000000 0.000000 0.000000 0.000000 100.000000" energy=-16314.10969011 Properties=species:S:1:pos:R:3:forces:R:3
C -0.40619 -0.01743 -1.29152 -1.30773 -0.98278 4.84359
F -0.58966 0.61386 -2.38433 -0.49451 1.73195 -4.38979
Cl 0.44815 -0.74623 2.24412 -0.01392 0.01125 -0.07336
H 0.60812 -0.24510 -1.07331 1.63803 -0.15447 0.12619
H -0.77622 0.65317 -0.45966 0.33690 -0.79404 -0.13730
H -0.94616 -0.98393 -1.19663 -0.16552 0.20152 -0.33942
6
Lattice="100.000000 0.000000 0.000000 0.000000 100.000000 0.000000 0.000000 0.000000 100.000000" energy=-16311.57811664 Properties=species:S:1:pos:R:3:forces:R:3
C -0.94039 -0.56103 -0.96317 0.05656 -0.25758 0.54132
F -2.98010 -0.13617 -2.10272 1.08202 -0.22259 0.29099
Cl 0.27301 -0.10311 1.31761 -0.38325 -0.44462 -0.86700
H -0.37062 0.33961 -1.06478 -0.09039 0.88347 -0.46554
H -1.91798 -0.53685 -0.50010 -0.00825 -0.22625 0.05728
H -0.44478 -1.44897 -1.41665 -0.64919 0.26394 0.42958
6
Lattice="100.000000 0.000000 0.000000 0.000000 100.000000 0.000000 0.000000 0.000000 100.000000" energy=-16314.02407037 Properties=species:S:1:pos:R:3:forces:R:3
C -0.27262 0.54429 -0.25939 -1.07470 0.02880 1.81113
F -0.28633 1.07697 -1.48943 0.04491 0.97672 -1.74912
Cl -0.03754 -0.79624 2.06908 0.04813 -0.61893 1.21967
H -0.72692 1.26323 0.51543 0.75389 -0.64794 -0.98161
H -0.97579 -0.32922 -0.23172 0.87326 0.30912 -0.02814
H 0.76171 0.29276 0.06547 -0.64636 -0.05042 -0.27833
6
Lattice="100.000000 0.000000 0.000000 0.000000 100.000000 0.000000 0.000000 0.000000 100.000000" energy=-16313.96722662 Properties=species:S:1:pos:R:3:forces:R:3
C -0.91182 -0.13839 -0.52375 -0.89584 -1.87620 -3.01570
F -0.70923 0.14415 -1.95499 -0.43619 0.00231 1.97901
Cl 0.25440 -0.40675 1.99685 0.32857 -0.13016 1.09779
H -0.27892 -1.00989 -0.28249 0.07048 0.64064 -0.04879
H -0.72971 0.69066 0.12036 0.52000 0.96704 0.16027
H -1.96656 -0.49510 -0.39499 0.41269 0.40157 -0.17738
6
Lattice="100.000000 0.000000 0.000000 0.000000 100.000000 0.000000 0.000000 0.000000 100.000000" energy=-16313.73473541 Properties=species:S:1:pos:R:3:forces:R:3
C -0.34878 0.03100 -1.04078 1.45949 -1.43489 -2.29810
F -0.23353 0.62104 -2.31793 -0.69082 -0.30162 0.35529
Cl 0.28880 -0.32502 1.47473 0.33837 -0.62515 2.22225
H 0.14096 0.59351 -0.29312 0.44624 1.39287 0.31339
H -1.34958 -0.19942 -0.70268 -0.85553 0.15283 -0.33318
H 0.24743 -0.93529 -1.03622 -0.69401 0.81698 -0.25968
6
Lattice="100.000000 0.000000 0.000000 0.000000 100.000000 0.000000 0.000000 0.000000 100.000000" energy=-16311.79181453 Properties=species:S:1:pos:R:3:forces:R:3
C -0.54280 0.84160 0.47511 2.93336 -1.82539 -4.60440
F -1.11080 1.97830 0.34576 -1.98683 5.56151 0.45355
Cl 0.39845 -1.25129 0.98699 2.08980 -5.16283 0.68220
H -1.22115 0.14688 0.06462 -1.54717 -1.64285 0.31457
H 0.20625 0.66091 -0.54839 -0.94653 0.93344 2.82910
H -0.03633 0.38888 1.35001 -0.54478 2.12404 0.32658
6
Lattice="100.000000 0.000000 0.000000 0.000000 100.000000 0.000000 0.000000 0.000000 100.000000" energy=-16311.91546877 Properties=species:S:1:pos:R:3:forces:R:3
C -0.09860 -0.87373 -0.25505 0.48744 0.92330 -2.65420
F -0.81123 0.41976 -0.20925 -1.35990 -2.14356 -1.18885
Cl -0.10627 -0.26476 2.08821 0.26987 0.55397 3.89066
H 0.78307 -0.34794 0.16216 1.07559 -1.59486 -1.38067
H -0.18090 -1.78210 0.35234 -1.28038 0.62221 0.69706
H -0.29957 -1.35938 -1.29560 0.80475 1.65268 0.63083
6
Lattice="100.000000 0.000000 0.000000 0.000000 100.000000 0.000000 0.000000 0.000000 100.000000" energy=-16314.14202892 Properties=species:S:1:pos:R:3:forces:R:3
C -0.40189 -0.02539 -1.29952 -0.11662 -1.23221 5.18100
F -0.58633 0.61790 -2.38881 -0.26238 1.76568 -4.03800
Cl 0.44724 -0.74258 2.25651 -0.01066 0.01265 -0.06720
H 0.65681 -0.24287 -1.03722 -0.07099 0.16489 -0.37774
H -0.78567 0.64000 -0.44357 0.39035 -1.11315 -0.57777
H -0.93855 -1.00607 -1.26372 0.06227 0.41514 -0.09392
6
Lattice="100.000000 0.000000 0.000000 0.000000 100.000000 0.000000 0.000000 0.000000 100.000000" energy=-16314.11671699 Properties=species:S:1:pos:R:3:forces:R:3
C -0.39911 -0.01156 -1.29626 1.90111 -1.62525 4.37405
F -0.58249 0.60701 -2.39391 -0.43692 1.87595 -4.54553
Cl 0.44044 -0.74275 2.24119 -0.01654 0.01154 -0.07230
H 0.69780 -0.26273 -1.06997 -1.05437 0.44339 -0.34459
H -0.76378 0.64075 -0.49856 0.06561 -0.12802 0.76561